# vtk DataFile Version 3.0
TPZGeoMesh VTK Visualization
ASCII

DATASET UNSTRUCTURED_GRID
POINTS 2048 float
0 0 0 
1.25 0 0 
1.25 1.25 0 
0 1.25 0 
0 0 1 
1.25 0 1 
1.25 1.25 1 
0 1.25 1 
1.25 0 0 
2.5 0 0 
2.5 1.25 0 
1.25 1.25 0 
1.25 0 1 
2.5 0 1 
2.5 1.25 1 
1.25 1.25 1 
2.5 0 0 
3.75 0 0 
3.75 1.25 0 
2.5 1.25 0 
2.5 0 1 
3.75 0 1 
3.75 1.25 1 
2.5 1.25 1 
3.75 0 0 
5 0 0 
5 1.25 0 
3.75 1.25 0 
3.75 0 1 
5 0 1 
5 1.25 1 
3.75 1.25 1 
5 0 0 
6.25 0 0 
6.25 1.25 0 
5 1.25 0 
5 0 1 
6.25 0 1 
6.25 1.25 1 
5 1.25 1 
6.25 0 0 
7.5 0 0 
7.5 1.25 0 
6.25 1.25 0 
6.25 0 1 
7.5 0 1 
7.5 1.25 1 
6.25 1.25 1 
7.5 0 0 
8.75 0 0 
8.75 1.25 0 
7.5 1.25 0 
7.5 0 1 
8.75 0 1 
8.75 1.25 1 
7.5 1.25 1 
8.75 0 0 
10 0 0 
10 1.25 0 
8.75 1.25 0 
8.75 0 1 
10 0 1 
10 1.25 1 
8.75 1.25 1 
10 0 0 
11.25 0 0 
11.25 1.25 0 
10 1.25 0 
10 0 1 
11.25 0 1 
11.25 1.25 1 
10 1.25 1 
11.25 0 0 
12.5 0 0 
12.5 1.25 0 
11.25 1.25 0 
11.25 0 1 
12.5 0 1 
12.5 1.25 1 
11.25 1.25 1 
12.5 0 0 
13.75 0 0 
13.75 1.25 0 
12.5 1.25 0 
12.5 0 1 
13.75 0 1 
13.75 1.25 1 
12.5 1.25 1 
13.75 0 0 
15 0 0 
15 1.25 0 
13.75 1.25 0 
13.75 0 1 
15 0 1 
15 1.25 1 
13.75 1.25 1 
15 0 0 
16.25 0 0 
16.25 1.25 0 
15 1.25 0 
15 0 1 
16.25 0 1 
16.25 1.25 1 
15 1.25 1 
16.25 0 0 
17.5 0 0 
17.5 1.25 0 
16.25 1.25 0 
16.25 0 1 
17.5 0 1 
17.5 1.25 1 
16.25 1.25 1 
17.5 0 0 
18.75 0 0 
18.75 1.25 0 
17.5 1.25 0 
17.5 0 1 
18.75 0 1 
18.75 1.25 1 
17.5 1.25 1 
18.75 0 0 
20 0 0 
20 1.25 0 
18.75 1.25 0 
18.75 0 1 
20 0 1 
20 1.25 1 
18.75 1.25 1 
0 1.25 0 
1.25 1.25 0 
1.25 2.5 0 
0 2.5 0 
0 1.25 1 
1.25 1.25 1 
1.25 2.5 1 
0 2.5 1 
1.25 1.25 0 
2.5 1.25 0 
2.5 2.5 0 
1.25 2.5 0 
1.25 1.25 1 
2.5 1.25 1 
2.5 2.5 1 
1.25 2.5 1 
2.5 1.25 0 
3.75 1.25 0 
3.75 2.5 0 
2.5 2.5 0 
2.5 1.25 1 
3.75 1.25 1 
3.75 2.5 1 
2.5 2.5 1 
3.75 1.25 0 
5 1.25 0 
5 2.5 0 
3.75 2.5 0 
3.75 1.25 1 
5 1.25 1 
5 2.5 1 
3.75 2.5 1 
5 1.25 0 
6.25 1.25 0 
6.25 2.5 0 
5 2.5 0 
5 1.25 1 
6.25 1.25 1 
6.25 2.5 1 
5 2.5 1 
6.25 1.25 0 
7.5 1.25 0 
7.5 2.5 0 
6.25 2.5 0 
6.25 1.25 1 
7.5 1.25 1 
7.5 2.5 1 
6.25 2.5 1 
7.5 1.25 0 
8.75 1.25 0 
8.75 2.5 0 
7.5 2.5 0 
7.5 1.25 1 
8.75 1.25 1 
8.75 2.5 1 
7.5 2.5 1 
8.75 1.25 0 
10 1.25 0 
10 2.5 0 
8.75 2.5 0 
8.75 1.25 1 
10 1.25 1 
10 2.5 1 
8.75 2.5 1 
10 1.25 0 
11.25 1.25 0 
11.25 2.5 0 
10 2.5 0 
10 1.25 1 
11.25 1.25 1 
11.25 2.5 1 
10 2.5 1 
11.25 1.25 0 
12.5 1.25 0 
12.5 2.5 0 
11.25 2.5 0 
11.25 1.25 1 
12.5 1.25 1 
12.5 2.5 1 
11.25 2.5 1 
12.5 1.25 0 
13.75 1.25 0 
13.75 2.5 0 
12.5 2.5 0 
12.5 1.25 1 
13.75 1.25 1 
13.75 2.5 1 
12.5 2.5 1 
13.75 1.25 0 
15 1.25 0 
15 2.5 0 
13.75 2.5 0 
13.75 1.25 1 
15 1.25 1 
15 2.5 1 
13.75 2.5 1 
15 1.25 0 
16.25 1.25 0 
16.25 2.5 0 
15 2.5 0 
15 1.25 1 
16.25 1.25 1 
16.25 2.5 1 
15 2.5 1 
16.25 1.25 0 
17.5 1.25 0 
17.5 2.5 0 
16.25 2.5 0 
16.25 1.25 1 
17.5 1.25 1 
17.5 2.5 1 
16.25 2.5 1 
17.5 1.25 0 
18.75 1.25 0 
18.75 2.5 0 
17.5 2.5 0 
17.5 1.25 1 
18.75 1.25 1 
18.75 2.5 1 
17.5 2.5 1 
18.75 1.25 0 
20 1.25 0 
20 2.5 0 
18.75 2.5 0 
18.75 1.25 1 
20 1.25 1 
20 2.5 1 
18.75 2.5 1 
0 2.5 0 
1.25 2.5 0 
1.25 3.75 0 
0 3.75 0 
0 2.5 1 
1.25 2.5 1 
1.25 3.75 1 
0 3.75 1 
1.25 2.5 0 
2.5 2.5 0 
2.5 3.75 0 
1.25 3.75 0 
1.25 2.5 1 
2.5 2.5 1 
2.5 3.75 1 
1.25 3.75 1 
2.5 2.5 0 
3.75 2.5 0 
3.75 3.75 0 
2.5 3.75 0 
2.5 2.5 1 
3.75 2.5 1 
3.75 3.75 1 
2.5 3.75 1 
3.75 2.5 0 
5 2.5 0 
5 3.75 0 
3.75 3.75 0 
3.75 2.5 1 
5 2.5 1 
5 3.75 1 
3.75 3.75 1 
5 2.5 0 
6.25 2.5 0 
6.25 3.75 0 
5 3.75 0 
5 2.5 1 
6.25 2.5 1 
6.25 3.75 1 
5 3.75 1 
6.25 2.5 0 
7.5 2.5 0 
7.5 3.75 0 
6.25 3.75 0 
6.25 2.5 1 
7.5 2.5 1 
7.5 3.75 1 
6.25 3.75 1 
7.5 2.5 0 
8.75 2.5 0 
8.75 3.75 0 
7.5 3.75 0 
7.5 2.5 1 
8.75 2.5 1 
8.75 3.75 1 
7.5 3.75 1 
8.75 2.5 0 
10 2.5 0 
10 3.75 0 
8.75 3.75 0 
8.75 2.5 1 
10 2.5 1 
10 3.75 1 
8.75 3.75 1 
10 2.5 0 
11.25 2.5 0 
11.25 3.75 0 
10 3.75 0 
10 2.5 1 
11.25 2.5 1 
11.25 3.75 1 
10 3.75 1 
11.25 2.5 0 
12.5 2.5 0 
12.5 3.75 0 
11.25 3.75 0 
11.25 2.5 1 
12.5 2.5 1 
12.5 3.75 1 
11.25 3.75 1 
12.5 2.5 0 
13.75 2.5 0 
13.75 3.75 0 
12.5 3.75 0 
12.5 2.5 1 
13.75 2.5 1 
13.75 3.75 1 
12.5 3.75 1 
13.75 2.5 0 
15 2.5 0 
15 3.75 0 
13.75 3.75 0 
13.75 2.5 1 
15 2.5 1 
15 3.75 1 
13.75 3.75 1 
15 2.5 0 
16.25 2.5 0 
16.25 3.75 0 
15 3.75 0 
15 2.5 1 
16.25 2.5 1 
16.25 3.75 1 
15 3.75 1 
16.25 2.5 0 
17.5 2.5 0 
17.5 3.75 0 
16.25 3.75 0 
16.25 2.5 1 
17.5 2.5 1 
17.5 3.75 1 
16.25 3.75 1 
17.5 2.5 0 
18.75 2.5 0 
18.75 3.75 0 
17.5 3.75 0 
17.5 2.5 1 
18.75 2.5 1 
18.75 3.75 1 
17.5 3.75 1 
18.75 2.5 0 
20 2.5 0 
20 3.75 0 
18.75 3.75 0 
18.75 2.5 1 
20 2.5 1 
20 3.75 1 
18.75 3.75 1 
0 3.75 0 
1.25 3.75 0 
1.25 5 0 
0 5 0 
0 3.75 1 
1.25 3.75 1 
1.25 5 1 
0 5 1 
1.25 3.75 0 
2.5 3.75 0 
2.5 5 0 
1.25 5 0 
1.25 3.75 1 
2.5 3.75 1 
2.5 5 1 
1.25 5 1 
2.5 3.75 0 
3.75 3.75 0 
3.75 5 0 
2.5 5 0 
2.5 3.75 1 
3.75 3.75 1 
3.75 5 1 
2.5 5 1 
3.75 3.75 0 
5 3.75 0 
5 5 0 
3.75 5 0 
3.75 3.75 1 
5 3.75 1 
5 5 1 
3.75 5 1 
5 3.75 0 
6.25 3.75 0 
6.25 5 0 
5 5 0 
5 3.75 1 
6.25 3.75 1 
6.25 5 1 
5 5 1 
6.25 3.75 0 
7.5 3.75 0 
7.5 5 0 
6.25 5 0 
6.25 3.75 1 
7.5 3.75 1 
7.5 5 1 
6.25 5 1 
7.5 3.75 0 
8.75 3.75 0 
8.75 5 0 
7.5 5 0 
7.5 3.75 1 
8.75 3.75 1 
8.75 5 1 
7.5 5 1 
8.75 3.75 0 
10 3.75 0 
10 5 0 
8.75 5 0 
8.75 3.75 1 
10 3.75 1 
10 5 1 
8.75 5 1 
10 3.75 0 
11.25 3.75 0 
11.25 5 0 
10 5 0 
10 3.75 1 
11.25 3.75 1 
11.25 5 1 
10 5 1 
11.25 3.75 0 
12.5 3.75 0 
12.5 5 0 
11.25 5 0 
11.25 3.75 1 
12.5 3.75 1 
12.5 5 1 
11.25 5 1 
12.5 3.75 0 
13.75 3.75 0 
13.75 5 0 
12.5 5 0 
12.5 3.75 1 
13.75 3.75 1 
13.75 5 1 
12.5 5 1 
13.75 3.75 0 
15 3.75 0 
15 5 0 
13.75 5 0 
13.75 3.75 1 
15 3.75 1 
15 5 1 
13.75 5 1 
15 3.75 0 
16.25 3.75 0 
16.25 5 0 
15 5 0 
15 3.75 1 
16.25 3.75 1 
16.25 5 1 
15 5 1 
16.25 3.75 0 
17.5 3.75 0 
17.5 5 0 
16.25 5 0 
16.25 3.75 1 
17.5 3.75 1 
17.5 5 1 
16.25 5 1 
17.5 3.75 0 
18.75 3.75 0 
18.75 5 0 
17.5 5 0 
17.5 3.75 1 
18.75 3.75 1 
18.75 5 1 
17.5 5 1 
18.75 3.75 0 
20 3.75 0 
20 5 0 
18.75 5 0 
18.75 3.75 1 
20 3.75 1 
20 5 1 
18.75 5 1 
0 5 0 
1.25 5 0 
1.25 6.25 0 
0 6.25 0 
0 5 1 
1.25 5 1 
1.25 6.25 1 
0 6.25 1 
1.25 5 0 
2.5 5 0 
2.5 6.25 0 
1.25 6.25 0 
1.25 5 1 
2.5 5 1 
2.5 6.25 1 
1.25 6.25 1 
2.5 5 0 
3.75 5 0 
3.75 6.25 0 
2.5 6.25 0 
2.5 5 1 
3.75 5 1 
3.75 6.25 1 
2.5 6.25 1 
3.75 5 0 
5 5 0 
5 6.25 0 
3.75 6.25 0 
3.75 5 1 
5 5 1 
5 6.25 1 
3.75 6.25 1 
5 5 0 
6.25 5 0 
6.25 6.25 0 
5 6.25 0 
5 5 1 
6.25 5 1 
6.25 6.25 1 
5 6.25 1 
6.25 5 0 
7.5 5 0 
7.5 6.25 0 
6.25 6.25 0 
6.25 5 1 
7.5 5 1 
7.5 6.25 1 
6.25 6.25 1 
7.5 5 0 
8.75 5 0 
8.75 6.25 0 
7.5 6.25 0 
7.5 5 1 
8.75 5 1 
8.75 6.25 1 
7.5 6.25 1 
8.75 5 0 
10 5 0 
10 6.25 0 
8.75 6.25 0 
8.75 5 1 
10 5 1 
10 6.25 1 
8.75 6.25 1 
10 5 0 
11.25 5 0 
11.25 6.25 0 
10 6.25 0 
10 5 1 
11.25 5 1 
11.25 6.25 1 
10 6.25 1 
11.25 5 0 
12.5 5 0 
12.5 6.25 0 
11.25 6.25 0 
11.25 5 1 
12.5 5 1 
12.5 6.25 1 
11.25 6.25 1 
12.5 5 0 
13.75 5 0 
13.75 6.25 0 
12.5 6.25 0 
12.5 5 1 
13.75 5 1 
13.75 6.25 1 
12.5 6.25 1 
13.75 5 0 
15 5 0 
15 6.25 0 
13.75 6.25 0 
13.75 5 1 
15 5 1 
15 6.25 1 
13.75 6.25 1 
15 5 0 
16.25 5 0 
16.25 6.25 0 
15 6.25 0 
15 5 1 
16.25 5 1 
16.25 6.25 1 
15 6.25 1 
16.25 5 0 
17.5 5 0 
17.5 6.25 0 
16.25 6.25 0 
16.25 5 1 
17.5 5 1 
17.5 6.25 1 
16.25 6.25 1 
17.5 5 0 
18.75 5 0 
18.75 6.25 0 
17.5 6.25 0 
17.5 5 1 
18.75 5 1 
18.75 6.25 1 
17.5 6.25 1 
18.75 5 0 
20 5 0 
20 6.25 0 
18.75 6.25 0 
18.75 5 1 
20 5 1 
20 6.25 1 
18.75 6.25 1 
0 6.25 0 
1.25 6.25 0 
1.25 7.5 0 
0 7.5 0 
0 6.25 1 
1.25 6.25 1 
1.25 7.5 1 
0 7.5 1 
1.25 6.25 0 
2.5 6.25 0 
2.5 7.5 0 
1.25 7.5 0 
1.25 6.25 1 
2.5 6.25 1 
2.5 7.5 1 
1.25 7.5 1 
2.5 6.25 0 
3.75 6.25 0 
3.75 7.5 0 
2.5 7.5 0 
2.5 6.25 1 
3.75 6.25 1 
3.75 7.5 1 
2.5 7.5 1 
3.75 6.25 0 
5 6.25 0 
5 7.5 0 
3.75 7.5 0 
3.75 6.25 1 
5 6.25 1 
5 7.5 1 
3.75 7.5 1 
5 6.25 0 
6.25 6.25 0 
6.25 7.5 0 
5 7.5 0 
5 6.25 1 
6.25 6.25 1 
6.25 7.5 1 
5 7.5 1 
6.25 6.25 0 
7.5 6.25 0 
7.5 7.5 0 
6.25 7.5 0 
6.25 6.25 1 
7.5 6.25 1 
7.5 7.5 1 
6.25 7.5 1 
7.5 6.25 0 
8.75 6.25 0 
8.75 7.5 0 
7.5 7.5 0 
7.5 6.25 1 
8.75 6.25 1 
8.75 7.5 1 
7.5 7.5 1 
8.75 6.25 0 
10 6.25 0 
10 7.5 0 
8.75 7.5 0 
8.75 6.25 1 
10 6.25 1 
10 7.5 1 
8.75 7.5 1 
10 6.25 0 
11.25 6.25 0 
11.25 7.5 0 
10 7.5 0 
10 6.25 1 
11.25 6.25 1 
11.25 7.5 1 
10 7.5 1 
11.25 6.25 0 
12.5 6.25 0 
12.5 7.5 0 
11.25 7.5 0 
11.25 6.25 1 
12.5 6.25 1 
12.5 7.5 1 
11.25 7.5 1 
12.5 6.25 0 
13.75 6.25 0 
13.75 7.5 0 
12.5 7.5 0 
12.5 6.25 1 
13.75 6.25 1 
13.75 7.5 1 
12.5 7.5 1 
13.75 6.25 0 
15 6.25 0 
15 7.5 0 
13.75 7.5 0 
13.75 6.25 1 
15 6.25 1 
15 7.5 1 
13.75 7.5 1 
15 6.25 0 
16.25 6.25 0 
16.25 7.5 0 
15 7.5 0 
15 6.25 1 
16.25 6.25 1 
16.25 7.5 1 
15 7.5 1 
16.25 6.25 0 
17.5 6.25 0 
17.5 7.5 0 
16.25 7.5 0 
16.25 6.25 1 
17.5 6.25 1 
17.5 7.5 1 
16.25 7.5 1 
17.5 6.25 0 
18.75 6.25 0 
18.75 7.5 0 
17.5 7.5 0 
17.5 6.25 1 
18.75 6.25 1 
18.75 7.5 1 
17.5 7.5 1 
18.75 6.25 0 
20 6.25 0 
20 7.5 0 
18.75 7.5 0 
18.75 6.25 1 
20 6.25 1 
20 7.5 1 
18.75 7.5 1 
0 7.5 0 
1.25 7.5 0 
1.25 8.75 0 
0 8.75 0 
0 7.5 1 
1.25 7.5 1 
1.25 8.75 1 
0 8.75 1 
1.25 7.5 0 
2.5 7.5 0 
2.5 8.75 0 
1.25 8.75 0 
1.25 7.5 1 
2.5 7.5 1 
2.5 8.75 1 
1.25 8.75 1 
2.5 7.5 0 
3.75 7.5 0 
3.75 8.75 0 
2.5 8.75 0 
2.5 7.5 1 
3.75 7.5 1 
3.75 8.75 1 
2.5 8.75 1 
3.75 7.5 0 
5 7.5 0 
5 8.75 0 
3.75 8.75 0 
3.75 7.5 1 
5 7.5 1 
5 8.75 1 
3.75 8.75 1 
5 7.5 0 
6.25 7.5 0 
6.25 8.75 0 
5 8.75 0 
5 7.5 1 
6.25 7.5 1 
6.25 8.75 1 
5 8.75 1 
6.25 7.5 0 
7.5 7.5 0 
7.5 8.75 0 
6.25 8.75 0 
6.25 7.5 1 
7.5 7.5 1 
7.5 8.75 1 
6.25 8.75 1 
7.5 7.5 0 
8.75 7.5 0 
8.75 8.75 0 
7.5 8.75 0 
7.5 7.5 1 
8.75 7.5 1 
8.75 8.75 1 
7.5 8.75 1 
8.75 7.5 0 
10 7.5 0 
10 8.75 0 
8.75 8.75 0 
8.75 7.5 1 
10 7.5 1 
10 8.75 1 
8.75 8.75 1 
10 7.5 0 
11.25 7.5 0 
11.25 8.75 0 
10 8.75 0 
10 7.5 1 
11.25 7.5 1 
11.25 8.75 1 
10 8.75 1 
11.25 7.5 0 
12.5 7.5 0 
12.5 8.75 0 
11.25 8.75 0 
11.25 7.5 1 
12.5 7.5 1 
12.5 8.75 1 
11.25 8.75 1 
12.5 7.5 0 
13.75 7.5 0 
13.75 8.75 0 
12.5 8.75 0 
12.5 7.5 1 
13.75 7.5 1 
13.75 8.75 1 
[...]
CELL_DATA 256
FIELD FieldData 2
material 1 256 int
1
1
1
1
1
1
1
1
1
1
1
1
1
1
1
1
1
1
1
1
1
1
1
1
1
1
1
1
1
1
1
1
1
1
1
1
1
1
1
1
1
1
1
1
1
1
1
1
1
1
1
1
1
1
1
1
1
1
1
1
1
1
1
1
1
1
1
1
1
1
1
1
1
1
1
1
1
1
1
1
1
1
1
1
1
1
1
1
1
1
1
1
1
1
1
1
1
1
1
1
1
1
1
1
1
1
1
1
1
1
1
1
1
1
1
1
1
1
1
1
1
1
1
1
1
1
1
1
1
1
1
1
1
1
1
1
1
1
1
1
1
1
1
1
1
1
1
1
1
1
1
1
1
1
1
1
1
1
1
1
1
1
1
1
1
1
1
1
1
1
1
1
1
1
1
1
1
1
1
1
1
1
1
1
1
1
1
1
1
1
1
1
1
1
1
1
1
1
1
1
1
1
1
1
1
1
1
1
1
1
1
1
1
1
1
1
1
1
1
1
1
1
1
1
1
1
1
1
1
1
1
1
1
1
1
1
1
1
1
1
1
1
1
1
1
1
1
1
1
1
1
1
1
1
1
1
elIndex 1 256 int
0
1
2
3
4
5
6
7
8
9
10
11
12
13
14
15
16
17
18
19
20
21
22
23
24
25
26
27
28
29
30
31
32
33
34
35
36
37
38
39
40
41
42
43
44
45
46
47
48
49
50
51
52
53
54
55
56
57
58
59
60
61
62
63
64
65
66
67
68
69
70
71
72
73
74
75
76
77
78
79
80
81
82
83
84
85
86
87
88
89
90
91
92
93
94
95
96
97
98
99
100
101
102
103
104
105
106
107
108
109
110
111
112
113
114
115
116
117
118
119
120
121
122
123
124
125
126
127
128
129
130
131
132
133
134
135
136
137
138
139
140
141
142
143
144
145
146
147
148
149
150
151
152
153
154
155
156
157
158
159
160
161
162
163
164
165
166
167
168
169
170
171
172
173
174
175
176
177
178
179
180
181
182
183
184
185
186
187
188
189
190
191
192
193
194
195
196
197
198
199
200
201
202
203
204
205
206
207
208
209
210
211
212
213
214
215
216
217
218
219
220
221
222
223
224
225
226
227
228
229
230
231
232
233
234
235
236
237
238
239
240
241
242
243
244
245
246
247
248
249
250
251
252
253
254
255
