# vtk DataFile Version 3.0
TPZGeoMesh VTK Visualization
ASCII

DATASET UNSTRUCTURED_GRID
POINTS 631 float
0 0 0 
1 0 0 
1 1 0 
0 1 0 
0 0 1 
1 0 1 
1 1 1 
0 1 1 
0 0 1 
1 0 1 
1 1 1 
0 1 1 
0 0 2 
1 0 2 
1 1 2 
0 1 2 
1 0 0 
2 0 0 
2 1 0 
1 1 0 
1 0 1 
2 0 1 
2 1 1 
1 1 1 
1 0 1 
2 0 1 
2 1 1 
1 1 1 
1 0 2 
2 0 2 
2 1 2 
1 1 2 
0 1 0 
1 1 0 
1 2 0 
0 2 0 
0 1 1 
1 1 1 
1 2 1 
0 2 1 
0 1 1 
1 1 1 
1 2 1 
0 2 1 
0 1 2 
1 1 2 
1 2 2 
0 2 2 
1 1 0 
2 1 0 
2 2 0 
1 2 0 
1 1 1 
2 1 1 
2 2 1 
1 2 1 
1 1 1 
2 1 1 
2 2 1 
1 2 1 
1 1 2 
2 1 2 
2 2 2 
1 2 2 
0 1 1 
0 0 1 
0 1 1 
1 1 1 
0 0 1 
1 0 1 
0 1 0 
0 1 1 
1 0 0 
1 0 1 
0 0 0 
0 0 1 
0 1 0 
0 0 0 
0 1 0 
1 1 0 
1 1 0 
1 0 0 
0 0 0 
1 0 0 
0 1 2 
0 0 2 
0 1 2 
1 1 2 
1 1 2 
1 0 2 
0 0 2 
1 0 2 
0 1 1 
0 1 2 
1 1 1 
1 1 2 
1 0 1 
1 0 2 
0 0 1 
0 0 2 
1 1 1 
2 1 1 
2 0 1 
2 1 1 
1 0 1 
2 0 1 
2 1 0 
2 1 1 
2 0 0 
2 0 1 
1 1 0 
2 1 0 
2 0 0 
2 1 0 
1 0 0 
2 0 0 
1 1 2 
2 1 2 
2 0 2 
2 1 2 
1 0 2 
2 0 2 
2 1 1 
2 1 2 
2 0 1 
2 0 2 
0 2 1 
0 1 1 
1 2 1 
0 2 1 
1 2 1 
1 1 1 
0 2 0 
0 2 1 
1 2 0 
1 2 1 
0 2 0 
0 1 0 
1 2 0 
0 2 0 
1 2 0 
1 1 0 
0 2 2 
0 1 2 
1 2 2 
0 2 2 
1 2 2 
1 1 2 
0 2 1 
0 2 2 
1 2 1 
1 2 2 
2 2 1 
1 2 1 
2 1 1 
2 2 1 
2 2 0 
2 2 1 
2 2 0 
1 2 0 
2 1 0 
2 2 0 
2 2 2 
1 2 2 
2 1 2 
2 2 2 
2 2 1 
2 2 2 
0 0 0 
0 1 0 
0 1 1 
0 0 1 
0 0 0 
1 0 0 
1 0 1 
0 0 1 
0 0 0 
1 0 0 
1 1 0 
0 1 0 
0 0 2 
1 0 2 
1 1 2 
0 1 2 
0 0 1 
0 1 1 
0 1 2 
0 0 2 
0 1 1 
1 1 1 
1 1 2 
0 1 2 
0 0 1 
1 0 1 
1 0 2 
0 0 2 
2 0 0 
2 1 0 
2 1 1 
2 0 1 
1 0 0 
2 0 0 
2 0 1 
1 0 1 
1 0 0 
2 0 0 
2 1 0 
1 1 0 
1 0 2 
2 0 2 
2 1 2 
1 1 2 
1 1 1 
2 1 1 
2 1 2 
1 1 2 
2 0 1 
2 1 1 
2 1 2 
2 0 2 
1 0 1 
2 0 1 
2 0 2 
1 0 2 
0 1 1 
1 1 1 
1 2 1 
0 2 1 
0 1 0 
0 2 0 
0 2 1 
0 1 1 
0 2 0 
1 2 0 
1 2 1 
0 2 1 
0 1 0 
1 1 0 
1 2 0 
0 2 0 
0 1 2 
1 1 2 
1 2 2 
0 2 2 
0 1 1 
0 2 1 
0 2 2 
0 1 2 
0 2 1 
1 2 1 
1 2 2 
0 2 2 
1 1 1 
1 2 1 
1 2 2 
1 1 2 
1 1 1 
2 1 1 
2 2 1 
1 2 1 
1 2 0 
2 2 0 
2 2 1 
1 2 1 
2 1 0 
2 2 0 
2 2 1 
2 1 1 
1 1 0 
2 1 0 
2 2 0 
1 2 0 
1 1 2 
2 1 2 
2 2 2 
1 2 2 
1 2 1 
2 2 1 
2 2 2 
1 2 2 
2 1 1 
2 2 1 
2 2 2 
2 1 2 
0.3 0.3 0.7 
1.3 0.3 0.7 
1.3 1.3 0.7 
0.3 1.3 0.7 
1 1 0 
1 1 0.7 
1 1 0.7 
1 1 1 
1 1 0.7 
0.3 1 0.7 
1 1 0.7 
0.3 1 0.7 
0.3 1 0.7 
1 1 0.7 
1 1 1 
0.3 1 0.7 
1 1 1 
0 1 1 
0.3 1 0.7 
0 1 1 
0 1 0 
0.3 1 0.7 
0 1 0 
1 1 0 
0.3 1 0.7 
1 1 0 
1 1 0.7 
1 0.3 0.7 
1 0.3 0.7 
1 0 1 
1 0 0 
1.3 1 0.7 
1 1 0.7 
1.3 1 0.7 
1.3 1 0.7 
1 1 0.7 
1 1 0 
1.3 1 0.7 
1 1 0 
2 1 0 
1.3 1 0.7 
2 1 0 
2 1 1 
1.3 1 0.7 
2 1 1 
1 1 1 
1.3 1 0.7 
1 1 1 
1 1 0.7 
1 1.3 0.7 
1 1 0.7 
1 1.3 0.7 
1 1.3 0.7 
1 1 0.7 
1 1 0 
1 1.3 0.7 
1 1 0 
1 2 0 
1 1.3 0.7 
1 2 0 
1 2 1 
1 1.3 0.7 
1 2 1 
1 1 1 
1 1.3 0.7 
1 1 1 
1 1 0.7 
0.3 0.3 0.7 
1 0.3 0.7 
1 0.3 0.7 
1.3 0.3 0.7 
1.3 1 0.7 
1.3 1.3 0.7 
1.3 1.3 0.7 
1 1.3 0.7 
1 1.3 0.7 
0.3 1.3 0.7 
0.3 1.3 0.7 
0.3 1 0.7 
0.3 1 0.7 
0.3 0.3 0.7 
1 1.3 0.7 
1.3 1.3 0.7 
1 1 0.7 
1.3 1.3 0.7 
1 1 0.7 
1 1.3 0.7 
1 1 0.7 
0.3 1.3 0.7 
1 1 0.7 
0.3 1.3 0.7 
0.3 0.3 0.7 
1 1 0.7 
0.3 1 0.7 
0.3 1.3 0.7 
1 1 0.7 
0.3 1 0.7 
1 1 0.7 
0.3 0.3 0.7 
1.3 1 0.7 
1 1 0.7 
1.3 1.3 0.7 
0.3 1 0.7 
1 1 1 
0.3 1 0.7 
0 1 1 
0.3 1 0.7 
0 1 0 
0.3 1 0.7 
1 1 0 
1 0.3 0.7 
1 0 1 
1 0.3 0.7 
1 0 0 
1.3 1 0.7 
1 1 0 
1.3 1 0.7 
2 1 0 
1.3 1 0.7 
2 1 1 
1.3 1 0.7 
1 1 1 
1 1.3 0.7 
1 1 0 
1 1.3 0.7 
1 2 0 
1 1.3 0.7 
1 2 1 
1 1.3 0.7 
1 1 1 
0.7 0.5 1.3 
1.7 0.7 1.3 
1.7 0.7 0.3 
0.7 0.5 0.3 
1 1 1 
1 0.56 1 
1 0.56 1 
1 0 1 
1 0.56 1 
1 1 0.7 
1 0.56 0.7 
1 0.56 0.7 
1 0.3 0.7 
1 0.56 0.7 
1.3 0.3 0.7 
1.3 0.62 0.7 
1.3 0.62 0.7 
1.3 1 0.7 
1.3 0.62 0.7 
1 1 0.7 
1.17368 0.594737 0.7 
1.17368 0.594737 0.7 
1.3 0.3 0.7 
1.17368 0.594737 0.7 
1 0.3 0.7 
1 0.56 0.811429 
1 0.56 0.811429 
1 1 1 
1 0.56 0.811429 
1 0.3 0.7 
1 0.56 0.44 
1 0.56 0.44 
1 1 0 
1 0.56 0.44 
0.7 0.5 1 
1 0.56 1 
0.7 0.5 1 
0.7 0.5 1 
1 0.56 1 
1 1 1 
0.7 0.5 1 
1 1 1 
0 1 1 
0.7 0.5 1 
0 1 1 
0 0 1 
0.7 0.5 1 
0 0 1 
1 0 1 
0.7 0.5 1 
1 0 1 
1 0.56 1 
1 0.56 1.3 
1 0.56 1 
1 0.56 1.3 
1 0.56 1.3 
1 0.56 1 
1 1 1 
1 0.56 1.3 
1 1 1 
1 1 2 
1 0.56 1.3 
1 1 2 
1 0 2 
1 0.56 1.3 
1 0 2 
1 0 1 
1 0.56 1.3 
1 0 1 
1 0.56 1 
1.7 0.7 1 
1 0.56 1 
1.7 0.7 1 
1.7 0.7 1 
1 0.56 1 
1 0 1 
1.7 0.7 1 
1 0 1 
2 0 1 
1.7 0.7 1 
2 0 1 
2 1 1 
1.7 0.7 1 
2 1 1 
1 1 1 
1.7 0.7 1 
1 1 1 
1 0.56 1 
1 0.56 0.7 
1 0.56 0.811429 
1 0.56 0.7 
1 0.56 0.811429 
1 0.3 0.7 
1 0.56 0.811429 
1 0.56 0.7 
1 1 0.7 
1 1 1 
1 0.56 0.811429 
1 0.56 1 
1 0.56 1 
1 0.56 0.811429 
1 1 1 
1 0.56 0.811429 
1 0.56 1 
1 0 1 
1 0.3 0.7 
1 0.56 0.3 
1 0.56 0.44 
1 0.56 0.3 
1 0.56 0.3 
1 0.56 0.44 
1 0.3 0.7 
1 0.56 0.3 
1 0.3 0.7 
1 0 0 
1 0.56 0.3 
1 0 0 
1 1 0 
1 0.56 0.3 
1 1 0 
1 0.56 0.44 
1 0.56 0.44 
1 0.56 0.7 
1 0.56 0.44 
1 0.56 0.7 
1 0.3 0.7 
1 0.56 0.7 
1 0.56 0.44 
1 1 0 
1 1 0.7 
0.7 0.5 0.7 
1 0.56 0.7 
0.7 0.5 0.7 
0.7 0.5 0.7 
1 0.56 0.7 
1 0.3 0.7 
0.7 0.5 0.7 
1 0.3 0.7 
0.3 0.3 0.7 
0.7 0.5 0.7 
0.3 0.3 0.7 
1 1 0.7 
0.7 0.5 0.7 
1 1 0.7 
1 0.56 0.7 
1 0.56 0.7 
1.17368 0.594737 0.7 
1.17368 0.594737 0.7 
1 0.56 0.7 
1 1 0.7 
1 0.56 0.7 
1.17368 0.594737 0.7 
1.3 0.3 0.7 
1 0.3 0.7 
1.3 0.62 0.7 
1.17368 0.594737 0.7 
1.17368 0.594737 0.7 
1.3 0.62 0.7 
1.3 0.3 0.7 
1.3 0.62 0.7 
1.17368 0.594737 0.7 
1 1 0.7 
1.3 1 0.7 
0.7 0.5 1.3 
1 0.56 1.3 
1 0.56 1.3 
1.7 0.7 1.3 
1.7 0.7 1.3 
1.7 0.7 1 
1.7 0.7 1 
1.7 0.7 0.3 
1.7 0.7 0.3 
1 0.56 0.3 
1 0.56 0.3 
0.7 0.5 0.3 
0.7 0.5 0.3 
0.7 0.5 0.7 
0.7 0.5 0.7 
0.7 0.5 1 
0.7 0.5 1 
0.7 0.5 1.3 
0.7 0.5 1 
1 1 1 
0.7 0.5 1 
0 1 1 
0.7 0.5 1 
0 0 1 
0.7 0.5 1 
1 0 1 
1 0.56 1.3 
1 1 1 
1 0.56 1.3 
1 1 2 
1 0.56 1.3 
1 0 2 
1 0.56 1.3 
1 0 1 
1.7 0.7 1 
1 0 1 
1.7 0.7 1 
2 0 1 
1.7 0.7 1 
2 1 1 
1.7 0.7 1 
1 1 1 
1 0.56 0.3 
1 0.3 0.7 
1 0.56 0.3 
1 0 0 
1 0.56 0.3 
1 1 0 
0.7 0.5 0.7 
1 0.3 0.7 
0.7 0.5 0.7 
0.3 0.3 0.7 
0.7 0.5 0.7 
1 1 0.7 

CELLS 245 876
8 0 1 2 3 4 5 6 7
8 8 9 10 11 12 13 14 15
8 16 17 18 19 20 21 22 23
8 24 25 26 27 28 29 30 31
8 32 33 34 35 36 37 38 39
8 40 41 42 43 44 45 46 47
8 48 49 50 51 52 53 54 55
8 56 57 58 59 60 61 62 63
2 64 65
2 66 67
2 68 69
2 70 71
2 72 73
2 74 75
2 76 77
2 78 79
2 80 81
2 82 83
2 84 85
2 86 87
2 88 89
2 90 91
2 92 93
2 94 95
2 96 97
2 98 99
2 100 101
2 102 103
2 104 105
2 106 107
2 108 109
2 110 111
2 112 113
2 114 115
2 116 117
2 118 119
2 120 121
2 122 123
2 124 125
2 126 127
2 128 129
2 130 131
2 132 133
2 134 135
2 136 137
2 138 139
2 140 141
2 142 143
2 144 145
2 146 147
2 148 149
2 150 151
2 152 153
2 154 155
2 156 157
2 158 159
2 160 161
2 162 163
2 164 165
2 166 167
4 168 169 170 171
4 172 173 174 175
4 176 177 178 179
4 180 181 182 183
4 184 185 186 187
4 188 189 190 191
4 192 193 194 195
4 196 197 198 199
4 200 201 202 203
4 204 205 206 207
4 208 209 210 211
4 212 213 214 215
4 216 217 218 219
4 220 221 222 223
4 224 225 226 227
4 228 229 230 231
4 232 233 234 235
4 236 237 238 239
4 240 241 242 243
4 244 245 246 247
4 248 249 250 251
4 252 253 254 255
4 256 257 258 259
4 260 261 262 263
4 264 265 266 267
4 268 269 270 271
4 272 273 274 275
4 276 277 278 279
4 280 281 282 283
1 284
1 285
1 286
1 287
2 288 289
2 290 291
1 292
1 293
2 294 295
3 296 297 298
3 299 300 301
3 302 303 304
3 305 306 307
3 308 309 310
1 311
3 312 313 314
1 315
2 316 317
3 318 319 320
3 321 322 323
3 324 325 326
3 327 328 329
3 330 331 332
1 333
2 334 335
3 336 337 338
3 339 340 341
3 342 343 344
3 345 346 347
3 348 349 350
2 351 352
2 353 354
2 355 356
2 357 358
2 359 360
2 361 362
2 363 364
3 365 366 367
2 368 369
3 370 371 372
2 373 374
2 375 376
3 377 378 379
3 380 381 382
3 383 384 385
2 386 387
2 388 389
2 390 391
2 392 393
2 394 395
2 396 397
2 398 399
2 400 401
2 402 403
2 404 405
2 406 407
2 408 409
2 410 411
2 412 413
1 414
1 415
1 416
1 417
2 418 419
2 420 421
1 422
2 423 424
2 425 426
1 427
2 428 429
2 430 431
1 432
2 433 434
2 435 436
1 437
2 438 439
2 440 441
1 442
2 443 444
2 445 446
1 447
1 448
2 449 450
3 451 452 453
3 454 455 456
3 457 458 459
3 460 461 462
3 463 464 465
1 466
2 467 468
3 469 470 471
3 472 473 474
3 475 476 477
3 478 479 480
3 481 482 483
1 484
2 485 486
3 487 488 489
3 490 491 492
3 493 494 495
3 496 497 498
3 499 500 501
2 502 503
3 504 505 506
4 507 508 509 510
2 511 512
3 513 514 515
4 516 517 518 519
1 520
2 521 522
3 523 524 525
3 526 527 528
3 529 530 531
3 532 533 534
2 535 536
3 537 538 539
4 540 541 542 543
1 544
2 545 546
3 547 548 549
3 550 551 552
3 553 554 555
3 556 557 558
2 559 560
3 561 562 563
4 564 565 566 567
2 568 569
3 570 571 572
4 573 574 575 576
2 577 578
2 579 580
2 581 582
2 583 584
2 585 586
2 587 588
2 589 590
2 591 592
2 593 594
2 595 596
2 597 598
2 599 600
2 601 602
2 603 604
2 605 606
2 607 608
2 609 610
2 611 612
2 613 614
2 615 616
2 617 618
2 619 620
2 621 622
2 623 624
2 625 626
2 627 628
2 629 630

CELL_TYPES 245
12
12
12
12
12
12
12
12
3
3
3
3
3
3
3
3
3
3
3
3
3
3
3
3
3
3
3
3
3
3
3
3
3
3
3
3
3
3
3
3
3
3
3
3
3
3
3
3
3
3
3
3
3
3
3
3
3
3
3
3
9
9
9
9
9
9
9
9
9
9
9
9
9
9
9
9
9
9
9
9
9
9
9
9
9
9
9
9
9
1
1
1
1
3
3
1
1
3
5
5
5
5
5
1
5
1
3
5
5
5
5
5
1
3
5
5
5
5
5
3
3
3
3
3
3
3
5
3
5
3
3
5
5
5
3
3
3
3
3
3
3
3
3
3
3
3
3
3
1
1
1
1
3
3
1
3
3
1
3
3
1
3
3
1
3
3
1
3
3
1
1
3
5
5
5
5
5
1
3
5
5
5
5
5
1
3
5
5
5
5
5
3
5
9
3
5
9
1
3
5
5
5
5
3
5
9
1
3
5
5
5
5
3
5
9
3
5
9
3
3
3
3
3
3
3
3
3
3
3
3
3
3
3
3
3
3
3
3
3
3
3
3
3
3
3

CELL_DATA 245
FIELD FieldData 2
material 1 245 int
1
1
1
1
1
1
1
1
4
4
4
4
4
4
4
4
4
4
4
4
4
4
4
4
4
4
4
4
4
4
4
4
4
4
4
4
4
4
4
4
4
4
4
4
4
4
4
4
4
4
4
4
4
4
4
4
4
4
4
4
4
4
4
4
4
4
4
4
4
4
4
4
4
4
4
4
4
4
4
4
4
4
4
4
4
4
4
4
4
40
40
40
40
19
19
45
45
46
18
18
18
18
18
45
18
45
46
18
18
18
18
18
45
46
18
18
18
18
18
46
46
46
46
46
46
46
47
48
47
48
48
47
47
47
19
19
19
19
19
19
19
19
19
19
19
19
19
19
40
40
40
40
19
19
45
46
46
45
46
46
45
48
48
45
19
19
45
19
19
45
45
46
18
18
18
18
18
45
46
18
18
18
18
18
45
46
18
18
18
18
18
46
18
18
46
18
18
45
46
18
18
18
18
46
18
18
45
46
47
47
47
47
46
47
47
46
47
47
46
46
46
46
46
46
46
46
46
19
19
19
19
19
19
19
19
19
19
19
19
19
19
19
19
19
19
elIndex 1 245 int
0
1
2
3
4
5
6
7
8
9
11
12
14
15
16
17
18
19
20
21
22
23
24
25
26
27
28
29
30
31
32
33
34
35
36
37
38
39
40
41
42
43
44
45
46
47
48
49
50
51
52
53
54
55
56
57
58
59
60
61
63
66
67
68
69
70
72
75
76
77
78
79
80
81
82
83
84
86
87
88
89
90
91
92
93
94
95
96
97
98
99
100
101
102
103
104
105
106
107
108
109
110
111
112
116
119
120
121
122
123
124
125
126
127
128
129
130
131
132
133
134
136
137
138
139
140
141
142
143
144
146
149
150
152
153
154
155
156
158
159
161
162
163
164
165
166
167
168
169
170
171
172
173
174
175
176
177
178
179
180
181
182
183
184
185
186
187
188
189
190
191
192
193
194
195
196
197
198
199
200
201
202
203
204
205
206
207
208
209
210
211
212
213
214
215
216
217
218
219
220
221
222
223
224
225
226
227
228
229
230
231
232
233
234
235
236
237
238
239
240
241
242
243
244
245
246
247
248
249
250
251
252
253
254
255
256
257
258
259
260
261
262
263
264
265
