# vtk DataFile Version 3.0
TPZGeoMesh VTK Visualization
ASCII

DATASET UNSTRUCTURED_GRID
POINTS 542 float
0 0 0 
1 0 0 
1 1 0 
0 1 0 
0 0 1 
1 0 1 
1 1 1 
0 1 1 
0 0 1 
1 0 1 
1 1 1 
0 1 1 
0 0 2 
1 0 2 
1 1 2 
0 1 2 
1 0 0 
2 0 0 
2 1 0 
1 1 0 
1 0 1 
2 0 1 
2 1 1 
1 1 1 
1 0 1 
2 0 1 
2 1 1 
1 1 1 
1 0 2 
2 0 2 
2 1 2 
1 1 2 
0 1 0 
1 1 0 
1 2 0 
0 2 0 
0 1 1 
1 1 1 
1 2 1 
0 2 1 
0 1 1 
1 1 1 
1 2 1 
0 2 1 
0 1 2 
1 1 2 
1 2 2 
0 2 2 
1 1 0 
2 1 0 
2 2 0 
1 2 0 
1 1 1 
2 1 1 
2 2 1 
1 2 1 
1 1 1 
2 1 1 
2 2 1 
1 2 1 
1 1 2 
2 1 2 
2 2 2 
1 2 2 
0 1 1 
0 0 1 
0 1 1 
1 1 1 
0 0 1 
1 0 1 
0 1 0 
0 1 1 
1 0 0 
1 0 1 
0 0 0 
0 0 1 
0 1 0 
0 0 0 
0 1 0 
1 1 0 
1 1 0 
1 0 0 
0 0 0 
1 0 0 
0 1 2 
0 0 2 
0 1 2 
1 1 2 
1 1 2 
1 0 2 
0 0 2 
1 0 2 
0 1 1 
0 1 2 
1 1 1 
1 1 2 
1 0 1 
1 0 2 
0 0 1 
0 0 2 
1 1 1 
2 1 1 
2 0 1 
2 1 1 
1 0 1 
2 0 1 
2 1 0 
2 1 1 
2 0 0 
2 0 1 
1 1 0 
2 1 0 
2 0 0 
2 1 0 
1 0 0 
2 0 0 
1 1 2 
2 1 2 
2 0 2 
2 1 2 
1 0 2 
2 0 2 
2 1 1 
2 1 2 
2 0 1 
2 0 2 
0 2 1 
0 1 1 
1 2 1 
0 2 1 
1 2 1 
1 1 1 
0 2 0 
0 2 1 
1 2 0 
1 2 1 
0 2 0 
0 1 0 
1 2 0 
0 2 0 
1 2 0 
1 1 0 
0 2 2 
0 1 2 
1 2 2 
0 2 2 
1 2 2 
1 1 2 
0 2 1 
0 2 2 
1 2 1 
1 2 2 
2 2 1 
1 2 1 
2 1 1 
2 2 1 
2 2 0 
2 2 1 
2 2 0 
1 2 0 
2 1 0 
2 2 0 
2 2 2 
1 2 2 
2 1 2 
2 2 2 
2 2 1 
2 2 2 
0 0 0 
0 1 0 
0 1 1 
0 0 1 
0 0 0 
1 0 0 
1 0 1 
0 0 1 
0 0 0 
1 0 0 
1 1 0 
0 1 0 
0 0 2 
1 0 2 
1 1 2 
0 1 2 
0 0 1 
0 1 1 
0 1 2 
0 0 2 
0 1 1 
1 1 1 
1 1 2 
0 1 2 
0 0 1 
1 0 1 
1 0 2 
0 0 2 
2 0 0 
2 1 0 
2 1 1 
2 0 1 
1 0 0 
2 0 0 
2 0 1 
1 0 1 
1 0 0 
2 0 0 
2 1 0 
1 1 0 
1 0 2 
2 0 2 
2 1 2 
1 1 2 
1 1 1 
2 1 1 
2 1 2 
1 1 2 
2 0 1 
2 1 1 
2 1 2 
2 0 2 
1 0 1 
2 0 1 
2 0 2 
1 0 2 
0 1 1 
1 1 1 
1 2 1 
0 2 1 
0 1 0 
0 2 0 
0 2 1 
0 1 1 
0 2 0 
1 2 0 
1 2 1 
0 2 1 
0 1 0 
1 1 0 
1 2 0 
0 2 0 
0 1 2 
1 1 2 
1 2 2 
0 2 2 
0 1 1 
0 2 1 
0 2 2 
0 1 2 
0 2 1 
1 2 1 
1 2 2 
0 2 2 
1 1 1 
1 2 1 
1 2 2 
1 1 2 
1 1 1 
2 1 1 
2 2 1 
1 2 1 
1 2 0 
2 2 0 
2 2 1 
1 2 1 
2 1 0 
2 2 0 
2 2 1 
2 1 1 
1 1 0 
2 1 0 
2 2 0 
1 2 0 
1 1 2 
2 1 2 
2 2 2 
1 2 2 
1 2 1 
2 2 1 
2 2 2 
1 2 2 
2 1 1 
2 2 1 
2 2 2 
2 1 2 
1 1 0 
1 1 0.7 
1 1 0.7 
1 1 1 
0.3 1 0.7 
1 1 0.7 
0.3 1 0.7 
1 1 0.7 
1 1 1 
0.3 1 0.7 
1 1 1 
0 1 1 
0.3 1 0.7 
0 1 1 
0 1 0 
0.3 1 0.7 
0 1 0 
1 1 0 
0.3 1 0.7 
1 1 0 
1 1 0.7 
1 0.3 0.7 
1 0 1 
1 0 0 
1.3 1 0.7 
1 1 0.7 
1.3 1 0.7 
1 1 0.7 
1 1 0 
1.3 1 0.7 
1 1 0 
2 1 0 
1.3 1 0.7 
2 1 0 
2 1 1 
1.3 1 0.7 
2 1 1 
1 1 1 
1.3 1 0.7 
1 1 1 
1 1 0.7 
1 1.3 0.7 
1 1 0.7 
1 1.3 0.7 
1 1 0.7 
1 1 0 
1 1.3 0.7 
1 1 0 
1 2 0 
1 1.3 0.7 
1 2 0 
1 2 1 
1 1.3 0.7 
1 2 1 
1 1 1 
1 1.3 0.7 
1 1 1 
1 1 0.7 
0.3 0.3 0.7 
1 0.3 0.7 
1 0.3 0.7 
1.3 0.3 0.7 
1.3 1 0.7 
1.3 1.3 0.7 
1.3 1.3 0.7 
1 1.3 0.7 
1 1.3 0.7 
0.3 1.3 0.7 
0.3 1.3 0.7 
0.3 1 0.7 
0.3 1 0.7 
0.3 0.3 0.7 
0.3 1 0.7 
1 1 1 
0.3 1 0.7 
0 1 1 
0.3 1 0.7 
0 1 0 
0.3 1 0.7 
1 1 0 
1 0.3 0.7 
1 0 1 
1 0.3 0.7 
1 0 0 
1.3 1 0.7 
1 1 0 
1.3 1 0.7 
2 1 0 
1.3 1 0.7 
2 1 1 
1.3 1 0.7 
1 1 1 
1 1.3 0.7 
1 1 0 
1 1.3 0.7 
1 2 0 
1 1.3 0.7 
1 2 1 
1 1.3 0.7 
1 1 1 
1 1 1 
1 0.56 1 
1 0.56 1 
1 0 1 
1 0.3 0.7 
1 0.56 0.7 
1 0.56 0.7 
1 1 0.7 
1.3 0.3 0.7 
1.3 0.62 0.7 
1.3 0.62 0.7 
1.3 1 0.7 
1 0.3 0.7 
1 0.56 0.811429 
1 0.56 0.811429 
1 1 1 
1 0.3 0.7 
1 0.56 0.44 
1 0.56 0.44 
1 1 0 
0.7 0.5 1 
1 0.56 1 
0.7 0.5 1 
1 0.56 1 
1 1 1 
0.7 0.5 1 
1 1 1 
0 1 1 
0.7 0.5 1 
0 1 1 
0 0 1 
0.7 0.5 1 
0 0 1 
1 0 1 
0.7 0.5 1 
1 0 1 
1 0.56 1 
1 0.56 1.3 
1 0.56 1 
1 0.56 1.3 
1 0.56 1 
1 1 1 
1 0.56 1.3 
1 1 1 
1 1 2 
1 0.56 1.3 
1 1 2 
1 0 2 
1 0.56 1.3 
1 0 2 
1 0 1 
1 0.56 1.3 
1 0 1 
1 0.56 1 
1.7 0.7 1 
1 0.56 1 
1.7 0.7 1 
1 0.56 1 
1 0 1 
1.7 0.7 1 
1 0 1 
2 0 1 
1.7 0.7 1 
2 0 1 
2 1 1 
1.7 0.7 1 
2 1 1 
1 1 1 
1.7 0.7 1 
1 1 1 
1 0.56 1 
1 0.56 0.7 
1 0.56 0.811429 
1 0.56 0.7 
1 0.56 0.811429 
1 0.3 0.7 
1 0.56 0.811429 
1 0.56 0.7 
1 1 0.7 
1 1 1 
1 0.56 0.811429 
1 0.56 1 
1 0.56 1 
1 0.56 0.811429 
1 1 1 
1 0.56 0.811429 
1 0.56 1 
1 0 1 
1 0.3 0.7 
1 0.56 0.3 
1 0.56 0.44 
1 0.56 0.3 
1 0.56 0.44 
1 0.3 0.7 
1 0.56 0.3 
1 0.3 0.7 
1 0 0 
1 0.56 0.3 
1 0 0 
1 1 0 
1 0.56 0.3 
1 1 0 
1 0.56 0.44 
1 0.56 0.44 
1 0.56 0.7 
1 0.56 0.44 
1 0.56 0.7 
1 0.3 0.7 
1 0.56 0.7 
1 0.56 0.44 
1 1 0 
1 1 0.7 
0.7 0.5 1.3 
1 0.56 1.3 
1 0.56 1.3 
1.7 0.7 1.3 
1.7 0.7 1.3 
1.7 0.7 1 
1.7 0.7 1 
1.7 0.7 0.3 
1.7 0.7 0.3 
1 0.56 0.3 
1 0.56 0.3 
0.7 0.5 0.3 
0.7 0.5 0.3 
0.7 0.5 1 
0.7 0.5 1 
0.7 0.5 1.3 
0.7 0.5 1 
1 1 1 
0.7 0.5 1 
0 1 1 
0.7 0.5 1 
0 0 1 
0.7 0.5 1 
1 0 1 
1 0.56 1.3 
1 1 1 
1 0.56 1.3 
1 1 2 
1 0.56 1.3 
1 0 2 
1 0.56 1.3 
1 0 1 
1.7 0.7 1 
1 0 1 
1.7 0.7 1 
2 0 1 
1.7 0.7 1 
2 1 1 
1.7 0.7 1 
1 1 1 
1 0.56 0.3 
1 0.3 0.7 
1 0.56 0.3 
1 0 0 
1 0.56 0.3 
1 1 0 

CELLS 196 738
8 0 1 2 3 4 5 6 7
8 8 9 10 11 12 13 14 15
8 16 17 18 19 20 21 22 23
8 24 25 26 27 28 29 30 31
8 32 33 34 35 36 37 38 39
8 40 41 42 43 44 45 46 47
8 48 49 50 51 52 53 54 55
8 56 57 58 59 60 61 62 63
2 64 65
2 66 67
2 68 69
2 70 71
2 72 73
2 74 75
2 76 77
2 78 79
2 80 81
2 82 83
2 84 85
2 86 87
2 88 89
2 90 91
2 92 93
2 94 95
2 96 97
2 98 99
2 100 101
2 102 103
2 104 105
2 106 107
2 108 109
2 110 111
2 112 113
2 114 115
2 116 117
2 118 119
2 120 121
2 122 123
2 124 125
2 126 127
2 128 129
2 130 131
2 132 133
2 134 135
2 136 137
2 138 139
2 140 141
2 142 143
2 144 145
2 146 147
2 148 149
2 150 151
2 152 153
2 154 155
2 156 157
2 158 159
2 160 161
2 162 163
2 164 165
2 166 167
4 168 169 170 171
4 172 173 174 175
4 176 177 178 179
4 180 181 182 183
4 184 185 186 187
4 188 189 190 191
4 192 193 194 195
4 196 197 198 199
4 200 201 202 203
4 204 205 206 207
4 208 209 210 211
4 212 213 214 215
4 216 217 218 219
4 220 221 222 223
4 224 225 226 227
4 228 229 230 231
4 232 233 234 235
4 236 237 238 239
4 240 241 242 243
4 244 245 246 247
4 248 249 250 251
4 252 253 254 255
4 256 257 258 259
4 260 261 262 263
4 264 265 266 267
4 268 269 270 271
4 272 273 274 275
4 276 277 278 279
4 280 281 282 283
2 284 285
2 286 287
2 288 289
3 290 291 292
3 293 294 295
3 296 297 298
3 299 300 301
3 302 303 304
3 305 306 307
2 308 309
3 310 311 312
3 313 314 315
3 316 317 318
3 319 320 321
3 322 323 324
2 325 326
3 327 328 329
3 330 331 332
3 333 334 335
3 336 337 338
3 339 340 341
2 342 343
2 344 345
2 346 347
2 348 349
2 350 351
2 352 353
2 354 355
2 356 357
2 358 359
2 360 361
2 362 363
2 364 365
2 366 367
2 368 369
2 370 371
2 372 373
2 374 375
2 376 377
2 378 379
2 380 381
2 382 383
2 384 385
2 386 387
2 388 389
2 390 391
2 392 393
2 394 395
2 396 397
2 398 399
2 400 401
2 402 403
2 404 405
3 406 407 408
3 409 410 411
3 412 413 414
3 415 416 417
3 418 419 420
2 421 422
3 423 424 425
3 426 427 428
3 429 430 431
3 432 433 434
3 435 436 437
2 438 439
3 440 441 442
3 443 444 445
3 446 447 448
3 449 450 451
3 452 453 454
2 455 456
3 457 458 459
4 460 461 462 463
2 464 465
3 466 467 468
4 469 470 471 472
2 473 474
3 475 476 477
3 478 479 480
3 481 482 483
3 484 485 486
2 487 488
3 489 490 491
4 492 493 494 495
2 496 497
2 498 499
2 500 501
2 502 503
2 504 505
2 506 507
2 508 509
2 510 511
2 512 513
2 514 515
2 516 517
2 518 519
2 520 521
2 522 523
2 524 525
2 526 527
2 528 529
2 530 531
2 532 533
2 534 535
2 536 537
2 538 539
2 540 541

CELL_TYPES 196
12
12
12
12
12
12
12
12
3
3
3
3
3
3
3
3
3
3
3
3
3
3
3
3
3
3
3
3
3
3
3
3
3
3
3
3
3
3
3
3
3
3
3
3
3
3
3
3
3
3
3
3
3
3
3
3
3
3
3
3
9
9
9
9
9
9
9
9
9
9
9
9
9
9
9
9
9
9
9
9
9
9
9
9
9
9
9
9
9
3
3
3
5
5
5
5
5
5
3
5
5
5
5
5
3
5
5
5
5
5
3
3
3
3
3
3
3
3
3
3
3
3
3
3
3
3
3
3
3
3
3
3
3
3
3
3
3
3
3
3
3
3
5
5
5
5
5
3
5
5
5
5
5
3
5
5
5
5
5
3
5
9
3
5
9
3
5
5
5
5
3
5
9
3
3
3
3
3
3
3
3
3
3
3
3
3
3
3
3
3
3
3
3
3
3
3

CELL_DATA 196
FIELD FieldData 2
material 1 196 int
1
1
1
1
1
1
1
1
4
4
4
4
4
4
4
4
4
4
4
4
4
4
4
4
4
4
4
4
4
4
4
4
4
4
4
4
4
4
4
4
4
4
4
4
4
4
4
4
4
4
4
4
4
4
4
4
4
4
4
4
4
4
4
4
4
4
4
4
4
4
4
4
4
4
4
4
4
4
4
4
4
4
4
4
4
4
4
4
4
19
19
46
18
18
18
18
18
18
46
18
18
18
18
18
46
18
18
18
18
18
46
46
46
46
46
46
46
19
19
19
19
19
19
19
19
19
19
19
19
19
19
19
19
46
46
46
46
19
19
19
19
46
18
18
18
18
18
46
18
18
18
18
18
46
18
18
18
18
18
46
18
18
46
18
18
46
18
18
18
18
46
18
18
46
46
46
46
46
46
46
46
19
19
19
19
19
19
19
19
19
19
19
19
19
19
19
elIndex 1 196 int
0
1
2
3
4
5
6
7
8
9
11
12
14
15
16
17
18
19
20
21
22
23
24
25
26
27
28
29
30
31
32
33
34
35
36
37
38
39
40
41
42
43
44
45
46
47
48
49
50
51
52
53
54
55
56
57
58
59
60
61
63
66
67
68
69
70
72
75
76
77
78
79
80
81
82
83
84
86
87
88
89
90
91
92
93
94
95
96
97
98
99
100
101
102
103
104
105
109
112
113
114
115
116
117
118
119
120
121
122
123
124
125
127
128
129
130
131
132
133
134
135
137
138
140
141
142
143
144
145
146
147
148
149
150
151
152
153
154
155
156
157
158
159
160
161
162
163
164
165
166
167
168
169
170
171
172
173
174
175
176
177
178
179
180
181
182
183
184
185
186
187
188
189
190
191
192
193
194
195
196
197
198
199
200
201
202
203
204
205
206
207
208
209
210
211
212
