# vtk DataFile Version 3.0
TPZGeoMesh VTK Visualization
ASCII

DATASET UNSTRUCTURED_GRID
POINTS 101 float
0 0 0 
2.33333 0 0 
2.33333 2.33333 0 
0 2.33333 0 
2.33333 0 0 
4.66667 0 0 
4.66667 2.33333 0 
2.33333 2.33333 0 
4.66667 0 0 
7 0 0 
7 2.33333 0 
4.66667 2.33333 0 
0 2.33333 0 
2.33333 2.33333 0 
2.33333 4.66667 0 
0 4.66667 0 
2.33333 2.33333 0 
4.66667 2.33333 0 
4.66667 4.66667 0 
2.33333 4.66667 0 
4.66667 2.33333 0 
7 2.33333 0 
7 4.66667 0 
4.66667 4.66667 0 
0 4.66667 0 
2.33333 4.66667 0 
2.33333 7 0 
0 7 0 
2.33333 4.66667 0 
4.66667 4.66667 0 
4.66667 7 0 
2.33333 7 0 
4.66667 4.66667 0 
7 4.66667 0 
7 7 0 
4.66667 7 0 
0 0 0 
2.33333 0 0 
2.33333 2.33333 0 
2.33333 0 0 
0 2.33333 0 
2.33333 2.33333 0 
0 2.33333 0 
0 0 0 
2.33333 0 0 
4.66667 0 0 
4.66667 2.33333 0 
4.66667 0 0 
2.33333 2.33333 0 
4.66667 2.33333 0 
4.66667 0 0 
7 0 0 
7 0 0 
7 2.33333 0 
4.66667 2.33333 0 
7 2.33333 0 
2.33333 4.66667 0 
2.33333 2.33333 0 
0 4.66667 0 
2.33333 4.66667 0 
0 4.66667 0 
0 2.33333 0 
4.66667 4.66667 0 
4.66667 2.33333 0 
2.33333 4.66667 0 
4.66667 4.66667 0 
7 2.33333 0 
7 4.66667 0 
4.66667 4.66667 0 
7 4.66667 0 
2.33333 7 0 
2.33333 4.66667 0 
2.33333 7 0 
0 7 0 
0 7 0 
0 4.66667 0 
4.66667 7 0 
4.66667 4.66667 0 
4.66667 7 0 
2.33333 7 0 
7 4.66667 0 
7 7 0 
7 7 0 
4.66667 7 0 
8.53949 4.73562 -0.319224 
4.74136 5.67831 4.22891 
3.25864 2.32169 -4.22891 
8.53949 4.73562 -0.319224 
4.74136 5.67831 4.22891 
4.74136 5.67831 4.22891 
3.25864 2.32169 -4.22891 
3.25864 2.32169 -4.22891 
8.53949 4.73562 -0.319224 
4.66667 4.66667 0 
4.66667 4.1251 0 
4.66667 4.1251 0 
4.66667 2.33333 0 
7 2.33333 0 
7 4.56293 0 
7 4.56293 0 
7 4.66667 0 

CELLS 41 142
4 0 1 2 3
4 4 5 6 7
4 8 9 10 11
4 12 13 14 15
4 16 17 18 19
4 20 21 22 23
4 24 25 26 27
4 28 29 30 31
4 32 33 34 35
2 36 37
2 38 39
2 40 41
2 42 43
2 44 45
2 46 47
2 48 49
2 50 51
2 52 53
2 54 55
2 56 57
2 58 59
2 60 61
2 62 63
2 64 65
2 66 67
2 68 69
2 70 71
2 72 73
2 74 75
2 76 77
2 78 79
2 80 81
2 82 83
3 84 85 86
2 87 88
2 89 90
2 91 92
2 93 94
2 95 96
2 97 98
2 99 100

CELL_TYPES 41
9
9
9
9
9
9
9
9
9
3
3
3
3
3
3
3
3
3
3
3
3
3
3
3
3
3
3
3
3
3
3
3
3
5
3
3
3
3
3
3
3

CELL_DATA 41
FIELD FieldData 2
material 1 41 int
1
1
1
1
35
20
1
1
1
4
4
4
4
4
4
4
4
4
4
4
4
4
12
4
12
4
4
4
4
4
4
4
4
40
40
40
40
50
50
50
50
elIndex 1 41 int
0
1
2
3
4
5
6
7
8
9
10
11
12
13
14
15
16
17
18
19
20
21
22
23
24
25
26
27
28
29
30
31
32
33
34
35
36
37
38
39
40
