# vtk DataFile Version 3.0
TPZGeoMesh VTK Visualization
ASCII

DATASET UNSTRUCTURED_GRID
POINTS 459 float
0 0 0 
1 0 0 
1 1 0 
0 1 0 
0 0 1 
1 0 1 
1 1 1 
0 1 1 
0 0 1 
1 0 1 
1 1 1 
0 1 1 
0 0 2 
1 0 2 
1 1 2 
0 1 2 
1 0 0 
2 0 0 
2 1 0 
1 1 0 
1 0 1 
2 0 1 
2 1 1 
1 1 1 
1 0 1 
2 0 1 
2 1 1 
1 1 1 
1 0 2 
2 0 2 
2 1 2 
1 1 2 
0 1 0 
1 1 0 
1 2 0 
0 2 0 
0 1 1 
1 1 1 
1 2 1 
0 2 1 
0 1 1 
1 1 1 
1 2 1 
0 2 1 
0 1 2 
1 1 2 
1 2 2 
0 2 2 
1 1 0 
2 1 0 
2 2 0 
1 2 0 
1 1 1 
2 1 1 
2 2 1 
1 2 1 
1 1 1 
2 1 1 
2 2 1 
1 2 1 
1 1 2 
2 1 2 
2 2 2 
1 2 2 
0 1 1 
0 0 1 
0 1 1 
1 1 1 
1 1 1 
1 0 1 
0 0 1 
1 0 1 
0 1 0 
0 1 1 
1 0 0 
1 0 1 
0 0 0 
0 0 1 
0 1 0 
0 0 0 
0 1 0 
1 1 0 
1 1 0 
1 0 0 
0 0 0 
1 0 0 
0 1 2 
0 0 2 
0 1 2 
1 1 2 
1 1 2 
1 0 2 
0 0 2 
1 0 2 
0 1 1 
0 1 2 
1 1 1 
1 1 2 
1 0 1 
1 0 2 
0 0 1 
0 0 2 
1 1 1 
2 1 1 
2 0 1 
2 1 1 
1 0 1 
2 0 1 
2 1 0 
2 1 1 
2 0 0 
2 0 1 
1 1 0 
2 1 0 
2 0 0 
2 1 0 
1 0 0 
2 0 0 
1 1 2 
2 1 2 
2 0 2 
2 1 2 
1 0 2 
2 0 2 
2 1 1 
2 1 2 
2 0 1 
2 0 2 
0 2 1 
0 1 1 
1 2 1 
0 2 1 
1 2 1 
1 1 1 
0 2 0 
0 2 1 
1 2 0 
1 2 1 
0 2 0 
0 1 0 
1 2 0 
0 2 0 
1 2 0 
1 1 0 
0 2 2 
0 1 2 
1 2 2 
0 2 2 
1 2 2 
1 1 2 
0 2 1 
0 2 2 
1 2 1 
1 2 2 
2 2 1 
1 2 1 
2 1 1 
2 2 1 
2 2 0 
2 2 1 
2 2 0 
1 2 0 
2 1 0 
2 2 0 
2 2 2 
1 2 2 
2 1 2 
2 2 2 
2 2 1 
2 2 2 
0 0 1 
1 0 1 
1 1 1 
0 1 1 
0 0 0 
0 1 0 
0 1 1 
0 0 1 
0 0 0 
1 0 0 
1 0 1 
0 0 1 
0 0 0 
1 0 0 
1 1 0 
0 1 0 
0 0 2 
1 0 2 
1 1 2 
0 1 2 
0 0 1 
0 1 1 
0 1 2 
0 0 2 
0 1 1 
1 1 1 
1 1 2 
0 1 2 
1 0 1 
1 1 1 
1 1 2 
1 0 2 
0 0 1 
1 0 1 
1 0 2 
0 0 2 
1 0 1 
2 0 1 
2 1 1 
1 1 1 
2 0 0 
2 1 0 
2 1 1 
2 0 1 
1 0 0 
2 0 0 
2 0 1 
1 0 1 
1 0 0 
2 0 0 
2 1 0 
1 1 0 
1 0 2 
2 0 2 
2 1 2 
1 1 2 
1 1 1 
2 1 1 
2 1 2 
1 1 2 
2 0 1 
2 1 1 
2 1 2 
2 0 2 
1 0 1 
2 0 1 
2 0 2 
1 0 2 
0 1 1 
1 1 1 
1 2 1 
0 2 1 
0 1 0 
0 2 0 
0 2 1 
0 1 1 
0 2 0 
1 2 0 
1 2 1 
0 2 1 
0 1 0 
1 1 0 
1 2 0 
0 2 0 
0 1 2 
1 1 2 
1 2 2 
0 2 2 
0 1 1 
0 2 1 
0 2 2 
0 1 2 
0 2 1 
1 2 1 
1 2 2 
0 2 2 
1 1 1 
1 2 1 
1 2 2 
1 1 2 
1 1 1 
2 1 1 
2 2 1 
1 2 1 
1 2 0 
2 2 0 
2 2 1 
1 2 1 
2 1 0 
2 2 0 
2 2 1 
2 1 1 
1 1 0 
2 1 0 
2 2 0 
1 2 0 
1 1 2 
2 1 2 
2 2 2 
1 2 2 
1 2 1 
2 2 1 
2 2 2 
1 2 2 
2 1 1 
2 2 1 
2 2 2 
2 1 2 
0.3 0.3 0.7 
1.3 0.3 0.7 
1.3 1.3 0.7 
0.3 1.3 0.7 
1 1 0 
1 1 0.7 
1 1 0.7 
1 1 1 
1 1 0.7 
0.3 1 0.7 
1 1 0.7 
0.3 1 0.7 
0.3 1 0.7 
1 1 0.7 
1 1 1 
0.3 1 0.7 
1 1 1 
0 1 1 
0.3 1 0.7 
0 1 1 
0 1 0 
0.3 1 0.7 
0 1 0 
1 1 0 
0.3 1 0.7 
1 1 0 
1 1 0.7 
1 0.3 0.7 
1 1 0.7 
1 0.3 0.7 
1 0.3 0.7 
1 1 0.7 
1 1 1 
1 0.3 0.7 
1 1 1 
1 0 1 
1 0.3 0.7 
1 0 1 
1 0 0 
1 0.3 0.7 
1 0 0 
1 1 0 
1 0.3 0.7 
1 1 0 
1 1 0.7 
1.3 1 0.7 
1 1 0.7 
1.3 1 0.7 
1.3 1 0.7 
1 1 0.7 
1 1 0 
1.3 1 0.7 
1 1 0 
2 1 0 
1.3 1 0.7 
2 1 0 
2 1 1 
1.3 1 0.7 
2 1 1 
1 1 1 
1.3 1 0.7 
1 1 1 
1 1 0.7 
1 1.3 0.7 
1 1 0.7 
1 1.3 0.7 
1 1.3 0.7 
1 1 0.7 
1 1 0 
1 1.3 0.7 
1 1 0 
1 2 0 
1 1.3 0.7 
1 2 0 
1 2 1 
1 1.3 0.7 
1 2 1 
1 1 1 
1 1.3 0.7 
1 1 1 
1 1 0.7 
0.3 0.3 0.7 
1 0.3 0.7 
1 0.3 0.7 
1.3 0.3 0.7 
1.3 0.3 0.7 
1.3 1 0.7 
1.3 1 0.7 
1.3 1.3 0.7 
1.3 1.3 0.7 
1 1.3 0.7 
1 1.3 0.7 
0.3 1.3 0.7 
0.3 1.3 0.7 
0.3 1 0.7 
0.3 1 0.7 
0.3 0.3 0.7 
1 1.3 0.7 
1.3 1.3 0.7 
1 1 0.7 
1.3 1.3 0.7 
1 1 0.7 
1 1.3 0.7 
1 1 0.7 
0.3 1.3 0.7 
1 1 0.7 
0.3 1.3 0.7 
1 0.3 0.7 
0.3 0.3 0.7 
1 1 0.7 
0.3 0.3 0.7 
1 1 0.7 
1 0.3 0.7 
1 1 0.7 
1.3 0.3 0.7 
1 1 0.7 
1.3 0.3 0.7 
0.3 1 0.7 
0.3 1.3 0.7 
1 1 0.7 
0.3 1 0.7 
1 1 0.7 
0.3 0.3 0.7 
1.3 1 0.7 
1.3 0.3 0.7 
1 1 0.7 
1.3 1 0.7 
1 1 0.7 
1.3 1.3 0.7 
0.3 1 0.7 
1 1 1 
0.3 1 0.7 
0 1 1 
0.3 1 0.7 
0 1 0 
0.3 1 0.7 
1 1 0 
1 0.3 0.7 
1 1 1 
1 0.3 0.7 
1 0 1 
1 0.3 0.7 
1 0 0 
1 0.3 0.7 
1 1 0 
1.3 1 0.7 
1 1 0 
1.3 1 0.7 
2 1 0 
1.3 1 0.7 
2 1 1 
1.3 1 0.7 
1 1 1 
1 1.3 0.7 
1 1 0 
1 1.3 0.7 
1 2 0 
1 1.3 0.7 
1 2 1 
1 1.3 0.7 
1 1 1 

CELLS 164 623
8 0 1 2 3 4 5 6 7
8 8 9 10 11 12 13 14 15
8 16 17 18 19 20 21 22 23
8 24 25 26 27 28 29 30 31
8 32 33 34 35 36 37 38 39
8 40 41 42 43 44 45 46 47
8 48 49 50 51 52 53 54 55
8 56 57 58 59 60 61 62 63
2 64 65
2 66 67
2 68 69
2 70 71
2 72 73
2 74 75
2 76 77
2 78 79
2 80 81
2 82 83
2 84 85
2 86 87
2 88 89
2 90 91
2 92 93
2 94 95
2 96 97
2 98 99
2 100 101
2 102 103
2 104 105
2 106 107
2 108 109
2 110 111
2 112 113
2 114 115
2 116 117
2 118 119
2 120 121
2 122 123
2 124 125
2 126 127
2 128 129
2 130 131
2 132 133
2 134 135
2 136 137
2 138 139
2 140 141
2 142 143
2 144 145
2 146 147
2 148 149
2 150 151
2 152 153
2 154 155
2 156 157
2 158 159
2 160 161
2 162 163
2 164 165
2 166 167
2 168 169
4 170 171 172 173
4 174 175 176 177
4 178 179 180 181
4 182 183 184 185
4 186 187 188 189
4 190 191 192 193
4 194 195 196 197
4 198 199 200 201
4 202 203 204 205
4 206 207 208 209
4 210 211 212 213
4 214 215 216 217
4 218 219 220 221
4 222 223 224 225
4 226 227 228 229
4 230 231 232 233
4 234 235 236 237
4 238 239 240 241
4 242 243 244 245
4 246 247 248 249
4 250 251 252 253
4 254 255 256 257
4 258 259 260 261
4 262 263 264 265
4 266 267 268 269
4 270 271 272 273
4 274 275 276 277
4 278 279 280 281
4 282 283 284 285
4 286 287 288 289
4 290 291 292 293
4 294 295 296 297
1 298
1 299
1 300
1 301
2 302 303
2 304 305
1 306
1 307
2 308 309
3 310 311 312
3 313 314 315
3 316 317 318
3 319 320 321
3 322 323 324
1 325
2 326 327
3 328 329 330
3 331 332 333
3 334 335 336
3 337 338 339
3 340 341 342
1 343
2 344 345
3 346 347 348
3 349 350 351
3 352 353 354
3 355 356 357
3 358 359 360
1 361
2 362 363
3 364 365 366
3 367 368 369
3 370 371 372
3 373 374 375
3 376 377 378
2 379 380
2 381 382
2 383 384
2 385 386
2 387 388
2 389 390
2 391 392
2 393 394
3 395 396 397
2 398 399
3 400 401 402
2 403 404
3 405 406 407
2 408 409
3 410 411 412
2 413 414
3 415 416 417
3 418 419 420
3 421 422 423
3 424 425 426
2 427 428
2 429 430
2 431 432
2 433 434
2 435 436
2 437 438
2 439 440
2 441 442
2 443 444
2 445 446
2 447 448
2 449 450
2 451 452
2 453 454
2 455 456
2 457 458

CELL_TYPES 164
12
12
12
12
12
12
12
12
3
3
3
3
3
3
3
3
3
3
3
3
3
3
3
3
3
3
3
3
3
3
3
3
3
3
3
3
3
3
3
3
3
3
3
3
3
3
3
3
3
3
3
3
3
3
3
3
3
3
3
3
3
9
9
9
9
9
9
9
9
9
9
9
9
9
9
9
9
9
9
9
9
9
9
9
9
9
9
9
9
9
9
9
9
1
1
1
1
3
3
1
1
3
5
5
5
5
5
1
3
5
5
5
5
5
1
3
5
5
5
5
5
1
3
5
5
5
5
5
3
3
3
3
3
3
3
3
5
3
5
3
5
3
5
3
5
5
5
5
3
3
3
3
3
3
3
3
3
3
3
3
3
3
3
3

CELL_DATA 164
FIELD FieldData 2
material 1 164 int
1
1
1
1
1
1
1
1
4
4
4
4
4
4
4
4
4
4
4
4
4
4
4
4
4
4
4
4
4
4
4
4
4
4
4
4
4
4
4
4
4
4
4
4
4
4
4
4
4
4
4
4
4
4
4
4
4
4
4
4
4
4
4
4
4
4
4
4
4
4
4
4
4
4
4
4
4
4
4
4
4
4
4
4
4
4
4
4
4
4
4
4
4
40
40
40
40
19
19
45
45
46
18
18
18
18
18
45
46
18
18
18
18
18
45
46
18
18
18
18
18
45
46
18
18
18
18
18
46
46
46
46
46
46
46
46
47
48
47
48
47
48
47
48
47
47
47
47
19
19
19
19
19
19
19
19
19
19
19
19
19
19
19
19
elIndex 1 164 int
0
1
2
3
4
5
6
7
8
9
10
11
12
14
15
16
17
18
19
20
21
22
23
24
25
26
27
28
29
30
31
32
33
34
35
36
37
38
39
40
41
42
43
44
45
46
47
48
49
50
51
52
53
54
55
56
57
58
59
60
61
62
63
66
67
68
69
70
71
72
73
75
76
77
78
79
80
81
82
83
84
86
87
88
89
90
91
92
93
94
95
96
97
98
99
100
101
102
103
104
105
106
107
108
109
110
111
112
113
114
115
116
117
118
119
120
121
122
123
124
125
126
127
128
129
130
131
132
133
134
135
136
137
138
139
140
141
142
143
144
145
146
147
148
149
150
151
152
153
154
155
156
157
158
159
160
161
162
163
164
165
166
167
168
