# vtk DataFile Version 3.0
TPZGeoMesh VTK Visualization
ASCII

DATASET UNSTRUCTURED_GRID
POINTS 1170 float
0 0 0 
1 0 0 
1 1 0 
0 1 0 
0 0 1 
1 0 1 
1 1 1 
0 1 1 
0 0 1 
1 0 1 
1 1 1 
0 1 1 
0 0 2 
1 0 2 
1 1 2 
0 1 2 
1 0 0 
2 0 0 
2 1 0 
1 1 0 
1 0 1 
2 0 1 
2 1 1 
1 1 1 
1 0 1 
2 0 1 
2 1 1 
1 1 1 
1 0 2 
2 0 2 
2 1 2 
1 1 2 
0 1 0 
1 1 0 
1 2 0 
0 2 0 
0 1 1 
1 1 1 
1 2 1 
0 2 1 
0 1 1 
1 1 1 
1 2 1 
0 2 1 
0 1 2 
1 1 2 
1 2 2 
0 2 2 
1 1 0 
2 1 0 
2 2 0 
1 2 0 
1 1 1 
2 1 1 
2 2 1 
1 2 1 
1 1 1 
2 1 1 
2 2 1 
1 2 1 
1 1 2 
2 1 2 
2 2 2 
1 2 2 
0 0 0 
0 1 0 
0 1 1 
0 0 1 
0 0 0 
1 0 0 
1 0 1 
0 0 1 
0 0 0 
1 0 0 
1 1 0 
0 1 0 
0 0 2 
1 0 2 
1 1 2 
0 1 2 
0 0 1 
0 1 1 
0 1 2 
0 0 2 
0 0 1 
1 0 1 
1 0 2 
0 0 2 
2 0 0 
2 1 0 
2 1 1 
2 0 1 
1 0 0 
2 0 0 
2 0 1 
1 0 1 
1 0 0 
2 0 0 
2 1 0 
1 1 0 
1 0 2 
2 0 2 
2 1 2 
1 1 2 
1 1 1 
2 1 1 
2 1 2 
1 1 2 
2 0 1 
2 1 1 
2 1 2 
2 0 2 
1 0 1 
2 0 1 
2 0 2 
1 0 2 
0 1 0 
0 2 0 
0 2 1 
0 1 1 
0 2 0 
1 2 0 
1 2 1 
0 2 1 
0 1 0 
1 1 0 
1 2 0 
0 2 0 
0 1 2 
1 1 2 
1 2 2 
0 2 2 
0 1 1 
0 2 1 
0 2 2 
0 1 2 
0 2 1 
1 2 1 
1 2 2 
0 2 2 
1 1 1 
1 2 1 
1 2 2 
1 1 2 
1 1 1 
2 1 1 
2 2 1 
1 2 1 
1 2 0 
2 2 0 
2 2 1 
1 2 1 
2 1 0 
2 2 0 
2 2 1 
2 1 1 
1 1 0 
2 1 0 
2 2 0 
1 2 0 
1 1 2 
2 1 2 
2 2 2 
1 2 2 
1 2 1 
2 2 1 
2 2 2 
1 2 2 
2 1 1 
2 2 1 
2 2 2 
2 1 2 
0 1 1 
0 0 1 
1 0 1 
0 0 1 
0 1 0 
0 1 1 
1 0 0 
1 0 1 
0 0 1 
0 0 0 
0 1 0 
0 0 0 
1 1 0 
0 1 0 
1 0 0 
1 1 0 
0 0 0 
1 0 0 
0 1 2 
0 0 2 
1 1 2 
0 1 2 
1 0 2 
1 1 2 
1 0 2 
0 0 2 
0 1 1 
0 1 2 
1 1 1 
1 1 2 
1 0 1 
1 0 2 
0 0 2 
0 0 1 
1 1 1 
2 1 1 
2 1 1 
2 0 1 
2 0 1 
1 0 1 
2 1 0 
2 1 1 
2 0 0 
2 0 1 
2 1 0 
1 1 0 
2 0 0 
2 1 0 
1 0 0 
2 0 0 
2 1 2 
1 1 2 
2 1 2 
2 0 2 
2 0 2 
1 0 2 
2 1 1 
2 1 2 
2 0 1 
2 0 2 
0 2 1 
0 1 1 
1 2 1 
0 2 1 
1 2 1 
1 1 1 
0 2 1 
0 2 0 
1 2 0 
1 2 1 
0 2 0 
0 1 0 
1 2 0 
0 2 0 
1 1 0 
1 2 0 
0 2 2 
0 1 2 
1 2 2 
0 2 2 
1 1 2 
1 2 2 
0 2 2 
0 2 1 
1 2 1 
1 2 2 
2 2 1 
1 2 1 
2 2 1 
2 1 1 
2 2 0 
2 2 1 
2 2 0 
1 2 0 
2 1 0 
2 2 0 
2 2 2 
1 2 2 
2 2 2 
2 1 2 
2 2 1 
2 2 2 
1 1 0 
1 1 0.572727 
1 1 0.572727 
1 1 1 
0.3 1 0.572727 
0 1 1 
0 1 0 
0.3 1 0.572727 
0 1 0 
1 1 0 
1 0.3 0.7 
1 0 1 
1 0 0 
1.3 1 0.572727 
1 1 0.572727 
1.3 1 0.572727 
1 1 0.572727 
1 1 0 
1.3 1 0.572727 
1 1 0 
2 1 0 
1.3 1 0.572727 
2 1 0 
2 1 1 
1.3 1 0.572727 
2 1 1 
1 1 1 
1.3 1 0.572727 
1 1 1 
1 1 0.572727 
1 1.4 0.5 
1 1 0.572727 
1 1.4 0.5 
1 1 0.572727 
1 1 0 
1 1.4 0.5 
1 1 0 
1 2 0 
1 1.4 0.5 
1 2 0 
1 2 1 
1 1.4 0.5 
1 2 1 
1 1 1 
1 1.4 0.5 
1 1 1 
1 1 0.572727 
0.3 1 0.572727 
0 1 1 
0.3 1 0.572727 
0 1 0 
0.3 1 0.572727 
1 1 0 
1 0.3 0.7 
1 0 1 
1 0.3 0.7 
1 0 0 
1.3 1 0.572727 
1 1 0 
1.3 1 0.572727 
2 1 0 
1.3 1 0.572727 
2 1 1 
1.3 1 0.572727 
1 1 1 
1 1.4 0.5 
1 1 0 
1 1.4 0.5 
1 2 0 
1 1.4 0.5 
1 2 1 
1 1.4 0.5 
1 1 1 
1 0.3 0.7 
1.3 0.3 0.7 
1.3 1 0.572727 
1.3 1.4 0.5 
1.3 1.4 0.5 
1 1.4 0.5 
0.3 1.4 0.5 
0.3 1 0.572727 
0.3 1 0.572727 
0.3 0.3 0.7 
1.3 1 0.572727 
1.3 1.4 0.5 
1 1.4 0.5 
1 1 0.572727 
1.3 1 0.572727 
1 1.4 0.5 
0.65 0.65 0.636364 
0.3 1 0.572727 
0.3 0.3 0.7 
1.3 1 0.572727 
1 1.4 0.5 
0.65 0.65 0.636364 
0.3 0.3 0.7 
0.3 1 0.572727 
0.65 0.65 0.636364 
1 1 1 
1 0.567143 1 
1 0.567143 1 
1 0 1 
1 0.3 0.7 
1 0.518608 0.660253 
1 0.518608 0.660253 
1 1 0.572727 
1 0.3 0.7 
1 0.538913 0.802391 
1 0.538913 0.802391 
1 1 1 
1 0.3 0.7 
1 0.49625 0.50375 
1 0.49625 0.50375 
1 1 0 
1.3 0.3 0.7 
1.3 0.562468 0.652278 
1.3 0.562468 0.652278 
1.3 1 0.572727 
1.3 0.3 0.7 
1.19415 0.546992 0.655092 
1.19415 0.546992 0.655092 
1 1 0.572727 
1 0.3 0.7 
0.809277 0.490723 0.665323 
0.6 0.507143 1 
0 1 1 
0 0 1 
1 0.61 1.3 
1 0.567143 1 
1 0.61 1.3 
1 0.567143 1 
1 1 1 
1 0.61 1.3 
1 1 1 
1 1 2 
1 0.61 1.3 
1 1 2 
1 0 2 
1 0.61 1.3 
1 0 2 
1 0 1 
1 0.61 1.3 
1 0 1 
1 0.567143 1 
1.6 0.657143 1 
1 0.567143 1 
1.6 0.657143 1 
1 0.567143 1 
1 0 1 
1.6 0.657143 1 
1 0 1 
2 0 1 
1.6 0.657143 1 
2 0 1 
2 1 1 
1.6 0.657143 1 
2 1 1 
1 1 1 
1.6 0.657143 1 
1 1 1 
1 0.567143 1 
1 0.518608 0.660253 
1 0.538913 0.802391 
1 0.518608 0.660253 
1 0.538913 0.802391 
1 0.3 0.7 
1 0.538913 0.802391 
1 0.518608 0.660253 
1 1 0.572727 
1 1 1 
1 0.538913 0.802391 
1 0.567143 1 
1 0.567143 1 
1 0.538913 0.802391 
1 1 1 
1 0.538913 0.802391 
1 0.567143 1 
1 0 1 
1 0.3 0.7 
1 0.46 0.25 
1 0.49625 0.50375 
1 0.46 0.25 
1 0.49625 0.50375 
1 0.3 0.7 
1 0.46 0.25 
1 0.3 0.7 
1 0 0 
1 0.46 0.25 
1 0 0 
1 1 0 
1 0.46 0.25 
1 1 0 
1 0.49625 0.50375 
1 0.49625 0.50375 
1 0.518608 0.660253 
1 0.49625 0.50375 
1 0.518608 0.660253 
1 0.3 0.7 
1 0.518608 0.660253 
1 0.49625 0.50375 
1 1 0 
1 1 0.572727 
1.3 0.562468 0.652278 
1.19415 0.546992 0.655092 
1.3 0.562468 0.652278 
1.19415 0.546992 0.655092 
1.3 0.3 0.7 
1.19415 0.546992 0.655092 
1.3 0.562468 0.652278 
1.3 1 0.572727 
1 1 0.572727 
0.809277 0.490723 0.665323 
1 0.518608 0.660253 
1 0.518608 0.660253 
0.809277 0.490723 0.665323 
1 0.3 0.7 
1.19415 0.546992 0.655092 
1 0.518608 0.660253 
1 0.518608 0.660253 
1.19415 0.546992 0.655092 
1 1 0.572727 
1.19415 0.546992 0.655092 
1 0.518608 0.660253 
1 0.3 0.7 
1.3 0.3 0.7 
0.6 0.460127 0.670886 
0.65 0.65 0.636364 
0.3 0.3 0.7 
0.6 0.507143 1 
0 1 1 
0.6 0.507143 1 
0 0 1 
1 0.61 1.3 
1 1 1 
1 0.61 1.3 
1 1 2 
1 0.61 1.3 
1 0 2 
1 0.61 1.3 
1 0 1 
1.6 0.657143 1 
1 0 1 
1.6 0.657143 1 
2 0 1 
1.6 0.657143 1 
2 1 1 
1.6 0.657143 1 
1 1 1 
1 0.46 0.25 
1 0.3 0.7 
1 0.46 0.25 
1 0 0 
1 0.46 0.25 
1 1 0 
0.6 0.460127 0.670886 
0.65 0.65 0.636364 
0.6 0.460127 0.670886 
0.3 0.3 0.7 
1 0.61 1.3 
1.6 0.7 1.3 
1.6 0.7 1.3 
1.6 0.657143 1 
1.6 0.657143 1 
1.6 0.55 0.25 
1.6 0.55 0.25 
1 0.46 0.25 
1 0.46 0.25 
0.6 0.4 0.25 
0.6 0.4 0.25 
0.6 0.460127 0.670886 
0.6 0.460127 0.670886 
0.6 0.507143 1 
0.6 0.507143 1 
0.6 0.55 1.3 
1.3 0.562468 0.652278 
1.6 0.657143 1 
1.6 0.55 0.25 
1 0.61 1.3 
1.6 0.7 1.3 
1.6 0.657143 1 
1 0.567143 1 
1.3 0.562468 0.652278 
1.19415 0.546992 0.655092 
1 0.567143 1 
1.6 0.657143 1 
1.3 0.562468 0.652278 
1 0.567143 1 
1 0.61 1.3 
1.6 0.657143 1 
1 0.538913 0.802391 
1 0.567143 1 
1.19415 0.546992 0.655092 
1 0.518608 0.660253 
1 0.538913 0.802391 
1.19415 0.546992 0.655092 
0.809277 0.490723 0.665323 
1 0.49625 0.50375 
0.6 0.4 0.25 
1.19415 0.546992 0.655092 
1.6 0.55 0.25 
1 0.49625 0.50375 
1 0.46 0.25 
1 0.49625 0.50375 
1.6 0.55 0.25 
0.809277 0.490723 0.665323 
1 0.538913 0.802391 
1 0.518608 0.660253 
0.809277 0.490723 0.665323 
1 0.518608 0.660253 
1 0.49625 0.50375 
1.19415 0.546992 0.655092 
1.3 0.562468 0.652278 
1.6 0.55 0.25 
1 0.49625 0.50375 
1 0.46 0.25 
0.6 0.4 0.25 
1.19415 0.546992 0.655092 
1 0.49625 0.50375 
1 0.518608 0.660253 
1.3 0.562468 0.652278 
1.6 0.55 0.25 
1.6 0.657143 1 
1.3 0.562468 0.652278 
1 0.61 1.3 
1.6 0.657143 1 
1 0.567143 1 
1.19415 0.546992 0.655092 
1.3 0.562468 0.652278 
1 0.567143 1 
1 0.538913 0.802391 
1.19415 0.546992 0.655092 
0.809277 0.490723 0.665323 
1 0.538913 0.802391 
0.6 0.4 0.25 
0.809277 0.490723 0.665323 
0.6 0.4 0.25 
1 0.49625 0.50375 
1 0.49625 0.50375 
0.809277 0.490723 0.665323 
1.19415 0.546992 0.655092 
1 0.49625 0.50375 
1 0.49625 0.50375 
1.6 0.55 0.25 
1.6 0.55 0.25 
1.19415 0.546992 0.655092 
0 1 1 
0.7 1 1 
0.7 1 1 
1 1 1 
0.3 1 0.572727 
0.7 1 0.572727 
0.7 1 0.572727 
1 1 0.572727 
0.3 1 0.572727 
0.7 1 0.816883 
0.7 1 0.816883 
1 1 1 
0.3 0.3 0.7 
0.7 0.3 0.7 
0.7 0.3 0.7 
1 0.3 0.7 
1 1.4 0.5 
0.7 1.4 0.5 
0.7 1.4 0.5 
0.3 1.4 0.5 
0.3 1.4 0.5 
0.7 1.17143 0.541558 
0.7 1.17143 0.541558 
1 1 0.572727 
0.65 0.65 0.636364 
0.7 0.7 0.627273 
0.7 0.7 0.627273 
1 1 0.572727 
0.809277 0.490723 0.665323 
0.7 0.6 0.645455 
0.7 0.6 0.645455 
0.65 0.65 0.636364 
0.6 0.507143 1 
0.7 0.522143 1 
0.7 0.522143 1 
1 0.567143 1 
0.6 0.460127 0.670886 
0.7 0.474747 0.668228 
0.7 0.474747 0.668228 
0.809277 0.490723 0.665323 
0.6 0.507143 1 
0.7 0.630357 1 
0.7 0.630357 1 
1 1 1 
0.6 0.507143 1 
0.7 0.380357 1 
0.7 0.380357 1 
1 0 1 
0.6 0.460127 0.670886 
0.7 0.420095 0.678165 
0.7 0.420095 0.678165 
1 0.3 0.7 
0.6 0.55 1.3 
0.7 0.565 1.3 
0.7 0.565 1.3 
1 0.61 1.3 
1 0.538913 0.802391 
0.7 0.515085 0.950598 
0.7 0.515085 0.950598 
0.6 0.507143 1 
0.6 0.507143 1 
0.7 0.499297 0.840079 
0.7 0.499297 0.840079 
0.809277 0.490723 0.665323 
1 0.567143 1 
0.7 0.554286 1.225 
0.7 0.554286 1.225 
0.6 0.55 1.3 
0.7 1 1.49231 
0.7 1 1 
0.7 1 1.49231 
0.7 1 1 
1 1 1 
0.7 1 1.49231 
1 1 1 
1 1 2 
0.7 1 1.49231 
1 1 2 
0 1 2 
0.7 1 1.49231 
0 1 2 
0 1 1 
0.7 1 1.49231 
0 1 1 
0.7 1 1 
0.7 1.6 1 
0.7 1 1 
0.7 1.6 1 
0.7 1 1 
1 1 1 
0.7 1.6 1 
1 1 1 
1 2 1 
0.7 1.6 1 
1 2 1 
0 2 1 
0.7 1.6 1 
0 2 1 
0 1 1 
0.7 1.6 1 
0 1 1 
0.7 1 1 
0.7 1 0.572727 
0.7 1 0.816883 
0.7 1 0.572727 
0.7 1 0.816883 
0.3 1 0.572727 
0.7 1 0.816883 
0.7 1 0.572727 
1 1 0.572727 
1 1 1 
0.7 1 0.816883 
0.7 1 1 
0.7 1 1 
0.7 1 0.816883 
1 1 1 
0.7 1 0.816883 
0.7 1 1 
0 1 1 
0.3 1 0.572727 
0.7 1 0.485714 
0.7 1 0.572727 
0.7 1 0.485714 
0.7 1 0.572727 
0.3 1 0.572727 
0.7 1 0.485714 
0.3 1 0.572727 
1 1 0 
0.7 1 0.485714 
1 1 0 
1 1 0.572727 
0.7 1 0.485714 
1 1 0.572727 
0.7 1 0.572727 
0.7 1.17143 0.541558 
0.7 1 0.572727 
0.7 1.17143 0.541558 
0.7 1 0.572727 
1 1 0.572727 
0.7 1 0.572727 
0.7 1.17143 0.541558 
0.3 1.4 0.5 
0.3 1 0.572727 
0.7 1.4 0.5 
0.7 1.17143 0.541558 
0.7 1.17143 0.541558 
0.7 1.4 0.5 
0.3 1.4 0.5 
0.7 1.4 0.5 
0.7 1.17143 0.541558 
1 1 0.572727 
1 1.4 0.5 
0.7 1 0.572727 
0.7 0.7 0.627273 
0.7 1 0.572727 
0.7 0.7 0.627273 
1 1 0.572727 
0.7 0.7 0.627273 
0.7 1 0.572727 
0.3 1 0.572727 
0.65 0.65 0.636364 
0.7 0.522143 1 
0.7 0.630357 1 
0.7 0.522143 1 
0.7 0.630357 1 
0.6 0.507143 1 
0.7 0.630357 1 
0.7 0.522143 1 
1 0.567143 1 
1 1 1 
0.7 0.630357 1 
0.7 1 1 
0.7 1 1 
0.7 0.630357 1 
1 1 1 
0.7 0.630357 1 
0.7 1 1 
0 1 1 
0.6 0.507143 1 
0.7 0.24 1 
0.7 0.380357 1 
0.7 0.24 1 
0.7 0.380357 1 
0.6 0.507143 1 
0.7 0.24 1 
0.6 0.507143 1 
0 0 1 
0.7 0.24 1 
0 0 1 
1 0 1 
0.7 0.24 1 
1 0 1 
0.7 0.380357 1 
0.7 0.380357 1 
0.7 0.522143 1 
0.7 0.380357 1 
0.7 0.522143 1 
0.6 0.507143 1 
0.7 0.522143 1 
0.7 0.380357 1 
1 0 1 
1 0.567143 1 
0.7 0.7 0.627273 
0.7 0.6 0.645455 
0.7 0.7 0.627273 
0.7 0.6 0.645455 
0.65 0.65 0.636364 
0.7 0.6 0.645455 
0.809277 0.490723 0.665323 
1 0.518608 0.660253 
0.7 0.7 0.627273 
0.7 0.6 0.645455 
1 0.518608 0.660253 
0.7 0.7 0.627273 
1 0.518608 0.660253 
1 1 0.572727 
0.7 0.474747 0.668228 
0.7 0.6 0.645455 
0.7 0.6 0.645455 
0.7 0.474747 0.668228 
0.809277 0.490723 0.665323 
0.7 0.474747 0.668228 
0.7 0.6 0.645455 
0.65 0.65 0.636364 
0.6 0.460127 0.670886 
0.7 0.3 0.7 
0.7 0.420095 0.678165 
0.7 0.420095 0.678165 
0.7 0.3 0.7 
1 0.3 0.7 
0.7 0.3 0.7 
0.7 0.420095 0.678165 
0.6 0.460127 0.670886 
0.3 0.3 0.7 
0.7 0.420095 0.678165 
0.7 0.474747 0.668228 
0.7 0.420095 0.678165 
0.7 0.474747 0.668228 
0.6 0.460127 0.670886 
0.7 0.474747 0.668228 
0.7 0.420095 0.678165 
1 0.3 0.7 
0.809277 0.490723 0.665323 
0.7 0.499297 0.840079 
0.7 0.515085 0.950598 
0.7 0.515085 0.950598 
0.7 0.499297 0.840079 
0.6 0.507143 1 
0.7 0.499297 0.840079 
0.7 0.515085 0.950598 
1 0.538913 0.802391 
0.809277 0.490723 0.665323 
0.7 0.522143 1 
0.7 0.515085 0.950598 
0.7 0.522143 1 
0.7 0.515085 0.950598 
0.6 0.507143 1 
0.7 0.515085 0.950598 
0.7 0.522143 1 
1 0.567143 1 
1 0.538913 0.802391 
0.7 0.499297 0.840079 
0.7 0.474747 0.668228 
0.7 0.474747 0.668228 
0.7 0.499297 0.840079 
0.809277 0.490723 0.665323 
0.7 0.499297 0.840079 
0.7 0.474747 0.668228 
0.6 0.460127 0.670886 
0.6 0.507143 1 
0.7 0.4597 0.5629 
0.7 0.474747 0.668228 
0.7 0.4597 0.5629 
0.7 0.474747 0.668228 
0.809277 0.490723 0.665323 
0.7 0.4597 0.5629 
0.809277 0.490723 0.665323 
0.6 0.4 0.25 
0.7 0.4597 0.5629 
0.6 0.4 0.25 
0.6 0.460127 0.670886 
0.7 0.4597 0.5629 
0.6 0.460127 0.670886 
0.7 0.474747 0.668228 
0.7 0.554286 1.225 
0.7 0.522143 1 
0.7 0.522143 1 
0.7 0.554286 1.225 
1 0.567143 1 
0.7 0.554286 1.225 
0.7 0.522143 1 
0.6 0.507143 1 
0.6 0.55 1.3 
0.7 0.565 1.3 
0.7 0.554286 1.225 
0.7 0.565 1.3 
0.7 0.554286 1.225 
0.6 0.55 1.3 
0.7 0.554286 1.225 
0.7 0.565 1.3 
1 0.61 1.3 
1 0.567143 1 
0.7 1 1.49231 
1 1 1 
0.7 1 1.49231 
1 1 2 
0.7 1 1.49231 
0 1 2 
0.7 1 1.49231 
0 1 1 
0.7 1.6 1 
1 1 1 
0.7 1.6 1 
1 2 1 
0.7 1.6 1 
0 2 1 
0.7 1.6 1 
0 1 1 
0.7 1 0.485714 
0.3 1 0.572727 
0.7 1 0.485714 
1 1 0 
0.7 1 0.485714 
1 1 0.572727 
0.7 0.24 1 
0.6 0.507143 1 
0.7 0.24 1 
0 0 1 
0.7 0.24 1 
1 0 1 
0.7 0.6 0.645455 
1 0.518608 0.660253 
0.7 0.7 0.627273 
1 0.518608 0.660253 
0.7 0.4597 0.5629 
0.809277 0.490723 0.665323 
0.7 0.4597 0.5629 
0.6 0.4 0.25 
0.7 0.4597 0.5629 
0.6 0.460127 0.670886 
0.7 0.2 0.6 
0.7 0.4597 0.5629 
0.7 0.4597 0.5629 
0.7 1 0.485714 
0.7 1 0.485714 
0.7 1.6 0.4 
0.7 1.6 0.4 
0.7 1.6 1 
0.7 1.6 1 
0.7 1.6 1.4 
0.7 1.6 1.4 
0.7 1 1.49231 
0.7 1 1.49231 
0.7 0.3 1.6 
0.7 0.3 1.6 
0.7 0.24 1 
0.7 0.24 1 
0.7 0.2 0.6 
0.7 0.565 1.3 
0.7 1 1.49231 
0.7 0.3 1.6 
0.7 1.4 0.5 
0.7 1.6 1 
0.7 1.17143 0.541558 
0.7 1.6 1 
0.7 1 0.816883 
0.7 1.17143 0.541558 
0.7 0.499297 0.840079 
0.7 0.3 0.7 
0.7 0.420095 0.678165 
0.7 0.499297 0.840079 
0.7 0.380357 1 
0.7 0.3 0.7 
0.7 1 1 
0.7 1.6 1.4 
0.7 1 1.49231 
0.7 1 1 
0.7 1.6 1 
0.7 1.6 1.4 
0.7 1.6 0.4 
0.7 1.6 1 
0.7 1.4 0.5 
0.7 1.6 0.4 
0.7 1.4 0.5 
0.7 1 0.485714 
0.7 1 0.485714 
0.7 1.4 0.5 
0.7 1.17143 0.541558 
0.7 1 0.485714 
0.7 1.17143 0.541558 
0.7 1 0.572727 
0.7 1 0.485714 
0.7 1 0.572727 
0.7 0.7 0.627273 
0.7 1 0.485714 
0.7 0.7 0.627273 
0.7 0.4597 0.5629 
0.7 0.3 0.7 
0.7 0.380357 1 
0.7 0.24 1 
0.7 0.522143 1 
0.7 0.554286 1.225 
0.7 0.380357 1 
0.7 1.17143 0.541558 
0.7 1 0.816883 
0.7 1 0.572727 
0.7 0.4597 0.5629 
0.7 0.7 0.627273 
0.7 0.6 0.645455 
0.7 0.4597 0.5629 
0.7 0.6 0.645455 
0.7 0.474747 0.668228 
0.7 0.4597 0.5629 
0.7 0.474747 0.668228 
0.7 0.420095 0.678165 
0.7 0.4597 0.5629 
0.7 0.420095 0.678165 
0.7 0.3 0.7 
0.7 0.4597 0.5629 
0.7 0.3 0.7 
0.7 0.2 0.6 
0.7 1 0.572727 
0.7 1 0.816883 
0.7 0.7 0.627273 
0.7 0.2 0.6 
0.7 0.3 0.7 
0.7 0.24 1 
0.7 0.554286 1.225 
0.7 0.3 1.6 
0.7 0.380357 1 
0.7 0.6 0.645455 
0.7 0.630357 1 
0.7 0.499297 0.840079 
0.7 0.6 0.645455 
0.7 0.7 0.627273 
0.7 0.630357 1 
0.7 0.554286 1.225 
0.7 1 1 
0.7 0.565 1.3 
0.7 0.554286 1.225 
0.7 0.630357 1 
0.7 1 1 
0.7 0.474747 0.668228 
0.7 0.499297 0.840079 
0.7 0.420095 0.678165 
0.7 1 1.49231 
0.7 0.565 1.3 
0.7 1 1 
0.7 1.6 1 
0.7 1 1 
0.7 1 0.816883 
0.7 0.499297 0.840079 
0.7 0.515085 0.950598 
0.7 0.380357 1 
0.7 0.565 1.3 
0.7 0.3 1.6 
0.7 0.554286 1.225 
0.7 1 0.816883 
0.7 1 1 
0.7 0.630357 1 
0.7 0.499297 0.840079 
0.7 0.630357 1 
0.7 0.515085 0.950598 
0.7 0.3 1.6 
0.7 0.24 1 
0.7 0.380357 1 
0.7 0.515085 0.950598 
0.7 0.630357 1 
0.7 0.522143 1 
0.7 0.515085 0.950598 
0.7 0.522143 1 
0.7 0.380357 1 
0.7 0.630357 1 
0.7 0.7 0.627273 
0.7 1 0.816883 
0.7 0.499297 0.840079 
0.7 0.474747 0.668228 
0.7 0.6 0.645455 
0.7 0.522143 1 
0.7 0.630357 1 
0.7 0.554286 1.225 
0.7 0.565 1.3 
0.7 0.3 1.6 
0.7 1 1.49231 
0.7 0.565 1.3 
0.7 1.17143 0.541558 
0.7 1.6 1 
0.7 1.6 1 
0.7 1.4 0.5 
0.7 1.17143 0.541558 
0.7 1 0.816883 
0.7 1 0.816883 
0.7 1.6 1 
0.7 0.499297 0.840079 
0.7 0.420095 0.678165 
0.7 0.3 0.7 
0.7 0.499297 0.840079 
0.7 0.3 0.7 
0.7 0.380357 1 
0.7 0.380357 1 
0.7 0.499297 0.840079 
0.7 1.6 1.4 
0.7 1 1 
0.7 1.6 0.4 
0.7 1.4 0.5 
0.7 1 0.485714 
0.7 1.4 0.5 
0.7 1 0.485714 
0.7 1.17143 0.541558 
0.7 1 0.485714 
0.7 0.7 0.627273 
0.7 0.4597 0.5629 
0.7 0.7 0.627273 
0.7 0.3 0.7 
0.7 0.24 1 
0.7 0.380357 1 
0.7 0.554286 1.225 
0.7 0.4597 0.5629 
0.7 0.6 0.645455 
0.7 0.4597 0.5629 
0.7 0.420095 0.678165 
0.7 0.4597 0.5629 
0.7 0.3 0.7 
0.7 0.2 0.6 
0.7 0.3 0.7 
0.7 0.7 0.627273 
0.7 1 0.816883 
0.7 0.380357 1 
0.7 0.3 1.6 
0.7 0.3 1.6 
0.7 0.554286 1.225 
0.7 0.6 0.645455 
0.7 0.499297 0.840079 
0.7 0.499297 0.840079 
0.7 0.630357 1 
0.7 0.630357 1 
0.7 0.6 0.645455 
0.7 0.630357 1 
0.7 0.7 0.627273 
0.7 0.565 1.3 
0.7 1 1 
0.7 1 1 
0.7 0.554286 1.225 
0.7 0.630357 1 
0.7 0.554286 1.225 
0.7 0.380357 1 
0.7 0.515085 0.950598 
0.7 1 0.816883 
0.7 0.630357 1 
0.7 0.515085 0.950598 
0.7 0.630357 1 

CELLS 445 1615
8 0 1 2 3 4 5 6 7
8 8 9 10 11 12 13 14 15
8 16 17 18 19 20 21 22 23
8 24 25 26 27 28 29 30 31
8 32 33 34 35 36 37 38 39
8 40 41 42 43 44 45 46 47
8 48 49 50 51 52 53 54 55
8 56 57 58 59 60 61 62 63
4 64 65 66 67
4 68 69 70 71
4 72 73 74 75
4 76 77 78 79
4 80 81 82 83
4 84 85 86 87
4 88 89 90 91
4 92 93 94 95
4 96 97 98 99
4 100 101 102 103
4 104 105 106 107
4 108 109 110 111
4 112 113 114 115
4 116 117 118 119
4 120 121 122 123
4 124 125 126 127
4 128 129 130 131
4 132 133 134 135
4 136 137 138 139
4 140 141 142 143
4 144 145 146 147
4 148 149 150 151
4 152 153 154 155
4 156 157 158 159
4 160 161 162 163
4 164 165 166 167
4 168 169 170 171
2 172 173
2 174 175
2 176 177
2 178 179
2 180 181
2 182 183
2 184 185
2 186 187
2 188 189
2 190 191
2 192 193
2 194 195
2 196 197
2 198 199
2 200 201
2 202 203
2 204 205
2 206 207
2 208 209
2 210 211
2 212 213
2 214 215
2 216 217
2 218 219
2 220 221
2 222 223
2 224 225
2 226 227
2 228 229
2 230 231
2 232 233
2 234 235
2 236 237
2 238 239
2 240 241
2 242 243
2 244 245
2 246 247
2 248 249
2 250 251
2 252 253
2 254 255
2 256 257
2 258 259
2 260 261
2 262 263
2 264 265
2 266 267
2 268 269
2 270 271
2 272 273
2 274 275
2 276 277
3 278 279 280
3 281 282 283
3 284 285 286
2 287 288
3 289 290 291
3 292 293 294
3 295 296 297
3 298 299 300
3 301 302 303
2 304 305
3 306 307 308
3 309 310 311
3 312 313 314
3 315 316 317
3 318 319 320
2 321 322
2 323 324
2 325 326
2 327 328
2 329 330
2 331 332
2 333 334
2 335 336
2 337 338
2 339 340
2 341 342
2 343 344
2 345 346
2 347 348
2 349 350
2 351 352
2 353 354
2 355 356
3 357 358 359
3 360 361 362
3 363 364 365
2 366 367
2 368 369
2 370 371
2 372 373
2 374 375
2 376 377
2 378 379
2 380 381
2 382 383
2 384 385
2 386 387
2 388 389
2 390 391
2 392 393
2 394 395
2 396 397
3 398 399 400
2 401 402
3 403 404 405
3 406 407 408
3 409 410 411
3 412 413 414
3 415 416 417
2 418 419
3 420 421 422
3 423 424 425
3 426 427 428
3 429 430 431
3 432 433 434
2 435 436
3 437 438 439
4 440 441 442 443
2 444 445
3 446 447 448
4 449 450 451 452
2 453 454
3 455 456 457
3 458 459 460
3 461 462 463
3 464 465 466
2 467 468
3 469 470 471
4 472 473 474 475
2 476 477
3 478 479 480
4 481 482 483 484
2 485 486
3 487 488 489
2 490 491
3 492 493 494
4 495 496 497 498
3 499 500 501
2 502 503
2 504 505
2 506 507
2 508 509
2 510 511
2 512 513
2 514 515
2 516 517
2 518 519
2 520 521
2 522 523
2 524 525
2 526 527
2 528 529
2 530 531
2 532 533
2 534 535
2 536 537
2 538 539
2 540 541
2 542 543
2 544 545
2 546 547
3 548 549 550
3 551 552 553
3 554 555 556
3 557 558 559
3 560 561 562
3 563 564 565
3 566 567 568
3 569 570 571
3 572 573 574
3 575 576 577
3 578 579 580
3 581 582 583
3 584 585 586
3 587 588 589
3 590 591 592
2 593 594
2 595 596
2 597 598
2 599 600
2 601 602
2 603 604
2 605 606
2 607 608
2 609 610
2 611 612
2 613 614
2 615 616
2 617 618
2 619 620
2 621 622
2 623 624
2 625 626
2 627 628
2 629 630
2 631 632
2 633 634
2 635 636
2 637 638
2 639 640
2 641 642
2 643 644
2 645 646
2 647 648
2 649 650
2 651 652
2 653 654
2 655 656
2 657 658
2 659 660
2 661 662
2 663 664
2 665 666
2 667 668
2 669 670
2 671 672
2 673 674
2 675 676
2 677 678
2 679 680
2 681 682
2 683 684
2 685 686
2 687 688
3 689 690 691
3 692 693 694
3 695 696 697
3 698 699 700
3 701 702 703
2 704 705
3 706 707 708
3 709 710 711
3 712 713 714
3 715 716 717
3 718 719 720
2 721 722
3 723 724 725
4 726 727 728 729
2 730 731
3 732 733 734
4 735 736 737 738
2 739 740
3 741 742 743
3 744 745 746
3 747 748 749
3 750 751 752
2 753 754
3 755 756 757
4 758 759 760 761
2 762 763
3 764 765 766
4 767 768 769 770
2 771 772
3 773 774 775
4 776 777 778 779
2 780 781
3 782 783 784
4 785 786 787 788
2 789 790
3 791 792 793
4 794 795 796 797
2 798 799
3 800 801 802
3 803 804 805
3 806 807 808
3 809 810 811
2 812 813
3 814 815 816
4 817 818 819 820
2 821 822
3 823 824 825
3 826 827 828
3 829 830 831
3 832 833 834
2 835 836
3 837 838 839
4 840 841 842 843
2 844 845
3 846 847 848
4 849 850 851 852
2 853 854
3 855 856 857
4 858 859 860 861
2 862 863
3 864 865 866
4 867 868 869 870
2 871 872
3 873 874 875
4 876 877 878 879
2 880 881
3 882 883 884
4 885 886 887 888
2 889 890
3 891 892 893
3 894 895 896
3 897 898 899
3 900 901 902
2 903 904
3 905 906 907
4 908 909 910 911
2 912 913
3 914 915 916
4 917 918 919 920
2 921 922
2 923 924
2 925 926
2 927 928
2 929 930
2 931 932
2 933 934
2 935 936
2 937 938
2 939 940
2 941 942
2 943 944
2 945 946
2 947 948
2 949 950
2 951 952
2 953 954
2 955 956
2 957 958
2 959 960
2 961 962
2 963 964
2 965 966
2 967 968
2 969 970
2 971 972
2 973 974
2 975 976
3 977 978 979
3 980 981 982
3 983 984 985
3 986 987 988
3 989 990 991
3 992 993 994
3 995 996 997
3 998 999 1000
3 1001 1002 1003
3 1004 1005 1006
3 1007 1008 1009
3 1010 1011 1012
3 1013 1014 1015
3 1016 1017 1018
3 1019 1020 1021
3 1022 1023 1024
3 1025 1026 1027
3 1028 1029 1030
3 1031 1032 1033
3 1034 1035 1036
3 1037 1038 1039
3 1040 1041 1042
3 1043 1044 1045
3 1046 1047 1048
3 1049 1050 1051
3 1052 1053 1054
3 1055 1056 1057
3 1058 1059 1060
3 1061 1062 1063
3 1064 1065 1066
3 1067 1068 1069
3 1070 1071 1072
3 1073 1074 1075
3 1076 1077 1078
3 1079 1080 1081
3 1082 1083 1084
3 1085 1086 1087
3 1088 1089 1090
3 1091 1092 1093
3 1094 1095 1096
3 1097 1098 1099
2 1100 1101
2 1102 1103
2 1104 1105
2 1106 1107
2 1108 1109
2 1110 1111
2 1112 1113
2 1114 1115
2 1116 1117
2 1118 1119
2 1120 1121
2 1122 1123
2 1124 1125
2 1126 1127
2 1128 1129
2 1130 1131
2 1132 1133
2 1134 1135
2 1136 1137
2 1138 1139
2 1140 1141
2 1142 1143
2 1144 1145
2 1146 1147
2 1148 1149
2 1150 1151
2 1152 1153
2 1154 1155
2 1156 1157
2 1158 1159
2 1160 1161
2 1162 1163
2 1164 1165
2 1166 1167
2 1168 1169

CELL_TYPES 445
12
12
12
12
12
12
12
12
9
9
9
9
9
9
9
9
9
9
9
9
9
9
9
9
9
9
9
9
9
9
9
9
9
9
9
3
3
3
3
3
3
3
3
3
3
3
3
3
3
3
3
3
3
3
3
3
3
3
3
3
3
3
3
3
3
3
3
3
3
3
3
3
3
3
3
3
3
3
3
3
3
3
3
3
3
3
3
3
5
5
5
3
5
5
5
5
5
3
5
5
5
5
5
3
3
3
3
3
3
3
3
3
3
3
3
3
3
3
3
3
3
5
5
5
3
3
3
3
3
3
3
3
3
3
3
3
3
3
3
3
5
3
5
5
5
5
5
3
5
5
5
5
5
3
5
9
3
5
9
3
5
5
5
5
3
5
9
3
5
9
3
5
3
5
9
5
3
3
3
3
3
3
3
3
3
3
3
3
3
3
3
3
3
3
3
3
3
3
3
5
5
5
5
5
5
5
5
5
5
5
5
5
5
5
3
3
3
3
3
3
3
3
3
3
3
3
3
3
3
3
3
3
3
3
3
3
3
3
3
3
3
3
3
3
3
3
3
3
3
3
3
3
3
3
3
3
3
3
3
3
3
3
5
5
5
5
5
3
5
5
5
5
5
3
5
9
3
5
9
3
5
5
5
5
3
5
9
3
5
9
3
5
9
3
5
9
3
5
9
3
5
5
5
5
3
5
9
3
5
5
5
5
3
5
9
3
5
9
3
5
9
3
5
9
3
5
9
3
5
9
3
5
5
5
5
3
5
9
3
5
9
3
3
3
3
3
3
3
3
3
3
3
3
3
3
3
3
3
3
3
3
3
3
3
3
3
3
3
3
5
5
5
5
5
5
5
5
5
5
5
5
5
5
5
5
5
5
5
5
5
5
5
5
5
5
5
5
5
5
5
5
5
5
5
5
5
5
5
5
5
3
3
3
3
3
3
3
3
3
3
3
3
3
3
3
3
3
3
3
3
3
3
3
3
3
3
3
3
3
3
3
3
3
3
3

CELL_DATA 445
FIELD FieldData 2
material 1 445 int
1
1
1
1
1
1
1
1
4
4
4
4
4
4
4
4
4
4
4
4
4
4
4
4
4
4
4
4
4
4
4
4
4
4
4
4
4
4
4
4
4
4
4
4
4
4
4
4
4
4
4
4
4
4
4
4
4
4
4
4
4
4
4
4
4
4
4
4
4
4
4
4
4
4
4
4
4
4
4
4
4
4
4
4
4
4
18
18
18
18
18
46
18
18
18
18
18
46
18
18
18
18
18
18
18
18
18
18
18
18
18
18
18
18
18
18
46
46
46
46
46
47
47
47
46
46
46
18
18
46
46
18
18
18
18
46
46
46
46
46
18
46
18
18
18
18
18
46
18
18
18
18
18
46
18
18
46
18
18
46
18
18
18
18
46
18
18
46
47
47
46
47
46
47
47
47
18
18
18
18
18
18
18
18
18
18
18
18
18
46
46
46
46
46
46
46
46
46
46
47
47
47
47
47
47
47
47
47
47
47
47
47
47
47
46
46
46
46
46
46
46
46
46
46
46
46
46
18
18
46
46
18
18
46
46
46
46
46
46
46
46
46
46
46
46
46
46
18
18
18
18
46
46
46
46
46
46
46
46
46
46
46
18
18
18
18
18
46
18
18
18
18
18
46
18
18
46
18
18
46
18
18
18
18
46
47
47
46
47
47
46
47
47
46
18
18
46
18
18
46
18
18
18
18
46
18
18
46
47
47
47
47
46
47
47
46
47
47
46
47
47
46
47
47
46
47
47
46
47
47
46
47
47
47
47
46
47
47
46
47
47
18
18
18
18
18
18
18
18
18
18
18
18
18
18
46
46
46
46
46
46
46
46
46
46
46
46
46
46
47
47
47
47
47
47
47
47
47
47
47
47
47
47
47
47
47
47
47
47
47
47
47
47
47
47
47
47
47
47
47
47
47
47
47
47
47
47
47
47
47
46
46
46
46
46
46
46
46
46
46
46
46
46
46
46
46
46
46
46
46
46
46
46
46
46
46
46
46
46
46
46
46
46
46
46
elIndex 1 445 int
0
1
2
3
4
5
6
7
9
12
13
14
15
18
21
22
23
24
25
26
27
29
30
32
33
34
35
36
37
38
39
40
41
42
43
44
47
48
50
51
52
53
54
55
56
57
58
59
60
61
62
63
64
65
66
67
68
69
70
71
72
73
74
75
76
77
78
79
80
81
82
83
84
85
86
87
88
89
90
91
92
93
94
95
96
97
98
99
103
104
109
112
113
114
115
116
117
118
119
120
121
122
123
125
126
127
129
130
132
133
134
135
136
137
138
139
141
143
144
146
147
148
151
152
158
160
161
165
166
167
168
169
170
171
172
173
174
175
176
177
182
185
186
187
188
189
190
191
192
193
194
195
196
197
198
199
200
201
202
203
204
205
206
207
208
209
210
211
212
213
214
215
217
218
219
222
226
227
229
230
231
232
233
234
235
236
237
238
239
240
241
244
245
246
247
248
249
250
251
252
253
254
255
256
257
258
263
265
266
268
269
270
271
272
273
274
275
276
277
278
279
282
283
284
286
287
288
289
290
291
292
293
294
295
296
297
298
299
300
301
302
303
304
305
306
307
308
309
310
311
312
313
314
315
316
317
318
319
320
321
322
323
324
325
326
327
328
329
330
331
332
333
334
335
336
337
338
339
340
341
342
343
344
345
346
347
348
349
350
351
352
353
354
355
356
357
358
359
360
361
362
363
364
365
366
367
368
369
370
371
372
373
374
375
376
377
378
379
380
381
382
383
384
385
386
387
388
389
390
391
392
393
394
395
396
397
398
399
400
401
402
403
404
405
406
407
408
409
410
411
412
413
414
415
416
417
418
419
420
421
422
423
424
425
426
427
428
429
430
431
432
433
434
435
436
437
438
439
440
441
442
443
444
445
446
447
448
449
450
451
452
453
454
455
456
457
458
459
460
461
462
463
464
465
466
467
468
469
470
471
472
473
474
475
476
477
478
479
480
481
482
483
484
485
486
487
488
489
490
491
492
493
494
495
496
497
498
499
500
501
502
503
504
505
506
