# vtk DataFile Version 3.0
TPZGeoMesh VTK Visualization
ASCII

DATASET UNSTRUCTURED_GRID
POINTS 104 float
0 0 0 
0.5 0 0 
0.5 0.5 0 
0 0.5 0 
0 0 0.5 
0.5 0 0.5 
0.5 0.5 0.5 
0 0.5 0.5 
0.5 0 0 
1 0 0 
1 0.5 0 
0.5 0.5 0 
0.5 0 0.5 
1 0 0.5 
1 0.5 0.5 
0.5 0.5 0.5 
0 0.5 0.5 
0 0 0.5 
0.5 0.5 0.5 
0 0.5 0.5 
0.5 0.5 0.5 
0.5 0 0.5 
0 0 0.5 
0.5 0 0.5 
0 0.5 0 
0 0.5 0.5 
0.5 0.5 0 
0.5 0.5 0.5 
0.5 0 0 
0.5 0 0.5 
0 0 0 
0 0 0.5 
0 0.5 0 
0 0 0 
0.5 0.5 0 
0 0.5 0 
0.5 0.5 0 
0.5 0 0 
0 0 0 
0.5 0 0 
1 0.5 0.5 
0.5 0.5 0.5 
1 0 0.5 
1 0.5 0.5 
0.5 0 0.5 
1 0 0.5 
1 0.5 0 
1 0.5 0.5 
1 0 0 
1 0 0.5 
1 0.5 0 
0.5 0.5 0 
1 0 0 
1 0.5 0 
0.5 0 0 
1 0 0 
0 0 0.5 
0.5 0 0.5 
0.5 0.5 0.5 
0 0.5 0.5 
0 0 0 
0 0.5 0 
0 0.5 0.5 
0 0 0.5 
0 0.5 0 
0.5 0.5 0 
0.5 0.5 0.5 
0 0.5 0.5 
0.5 0 0 
0.5 0.5 0 
0.5 0.5 0.5 
0.5 0 0.5 
0 0 0 
0.5 0 0 
0.5 0 0.5 
0 0 0.5 
0 0 0 
0.5 0 0 
0.5 0.5 0 
0 0.5 0 
0.5 0 0.5 
1 0 0.5 
1 0.5 0.5 
0.5 0.5 0.5 
0.5 0.5 0 
1 0.5 0 
1 0.5 0.5 
0.5 0.5 0.5 
1 0 0 
1 0.5 0 
1 0.5 0.5 
1 0 0.5 
0.5 0 0 
1 0 0 
1 0 0.5 
0.5 0 0.5 
0.5 0 0 
1 0 0 
1 0.5 0 
0.5 0.5 0 
-0.5 -0.5 0.5 
1.5 -0.5 0.5 
1.5 1.5 0.5 
-0.5 1.5 0.5 

CELLS 34 138
8 0 1 2 3 4 5 6 7
8 8 9 10 11 12 13 14 15
2 16 17
2 18 19
2 20 21
2 22 23
2 24 25
2 26 27
2 28 29
2 30 31
2 32 33
2 34 35
2 36 37
2 38 39
2 40 41
2 42 43
2 44 45
2 46 47
2 48 49
2 50 51
2 52 53
2 54 55
4 56 57 58 59
4 60 61 62 63
4 64 65 66 67
4 68 69 70 71
4 72 73 74 75
4 76 77 78 79
4 80 81 82 83
4 84 85 86 87
4 88 89 90 91
4 92 93 94 95
4 96 97 98 99
4 100 101 102 103

CELL_TYPES 34
12
12
3
3
3
3
3
3
3
3
3
3
3
3
3
3
3
3
3
3
3
3
9
9
9
9
9
9
9
9
9
9
9
9

CELL_DATA 34
FIELD FieldData 3
material 1 34 int
1
1
2
2
2
2
3
3
3
3
1
1
1
1
2
2
2
3
3
1
1
1
2
1
1
1
1
1
2
1
1
1
1
100
elIndex 1 34 int
0
1
2
3
4
5
6
7
8
9
10
11
12
13
14
15
16
17
18
19
20
21
22
23
24
25
26
27
28
29
30
31
32
33
Dimension 1 34 int
3
3
1
1
1
1
1
1
1
1
1
1
1
1
1
1
1
1
1
1
1
1
2
2
2
2
2
2
2
2
2
2
2
2
