# vtk DataFile Version 3.0
TPZGeoMesh VTK Visualization
ASCII

DATASET UNSTRUCTURED_GRID
POINTS 96 float
0 0 0 
1 0 0 
1 1 0 
0 1 0 
0 0 1 
1 0 1 
1 1 1 
0 1 1 
0 1 1 
0 0 1 
1 1 1 
0 1 1 
1 0 1 
1 1 1 
0 0 1 
1 0 1 
0 1 0 
0 0 0 
1 1 0 
0 1 0 
1 0 0 
1 1 0 
0 0 0 
1 0 0 
0 0 1 
1 0 1 
1 1 1 
0 1 1 
0 0 0 
1 0 0 
1 1 0 
0 1 0 
0 1 0 
0 1 0.5 
0 1 0.5 
0 1 1 
1 1 0 
1 1 0.5 
1 1 0.5 
1 1 1 
1 0 0 
1 0 0.5 
1 0 0.5 
1 0 1 
0 0 0 
0 0 0.5 
0 0 0.5 
0 0 1 
0 0 0.5 
0 1 0.5 
0 1 1 
0 0 1 
0 1 0.5 
0 0 0.5 
0 0 0 
0 1 0 
0 1 0.5 
1 1 0.5 
1 1 1 
0 1 1 
1 1 0.5 
0 1 0.5 
0 1 0 
1 1 0 
1 0 0.5 
1 1 0.5 
1 1 1 
1 0 1 
1 1 0.5 
1 0 0.5 
1 0 0 
1 1 0 
0 0 0.5 
1 0 0.5 
1 0 1 
0 0 1 
1 0 0.5 
0 0 0.5 
0 0 0 
1 0 0 
0 1 0.5 
0 0 0.5 
1 1 0.5 
0 1 0.5 
1 1 0.5 
1 0 0.5 
1 0 0.5 
0 0 0.5 
0 1 0.5 
0 0 0.5 
1 0 0.5 
1 1 0.5 
-0.5 1 0.5 
0.5 1.9 0.5 
2 0.5 0.5 
1 -0.4 0.5 

CELLS 33 129
8 0 1 2 3 4 5 6 7
2 8 9
2 10 11
2 12 13
2 14 15
2 16 17
2 18 19
2 20 21
2 22 23
4 24 25 26 27
4 28 29 30 31
2 32 33
2 34 35
2 36 37
2 38 39
2 40 41
2 42 43
2 44 45
2 46 47
4 48 49 50 51
4 52 53 54 55
4 56 57 58 59
4 60 61 62 63
4 64 65 66 67
4 68 69 70 71
4 72 73 74 75
4 76 77 78 79
2 80 81
2 82 83
2 84 85
2 86 87
4 88 89 90 91
4 92 93 94 95

CELL_TYPES 33
12
3
3
3
3
3
3
3
3
9
9
3
3
3
3
3
3
3
3
9
9
9
9
9
9
9
9
3
3
3
3
9
9

CELL_DATA 33
FIELD FieldData 3
material 1 33 int
1
1
1
1
1
1
1
1
1
1
1
3
3
3
3
3
3
3
3
3
3
3
3
3
3
3
3
2
2
2
2
2
100
elIndex 1 33 int
0
1
2
3
4
9
10
11
12
13
18
19
20
21
22
23
24
25
26
27
28
29
30
31
32
33
34
35
36
37
38
39
40
Dimension 1 33 int
3
1
1
1
1
1
1
1
1
2
2
1
1
1
1
1
1
1
1
2
2
2
2
2
2
2
2
1
1
1
1
2
2
