# vtk DataFile Version 3.0
TPZGeoMesh VTK Visualization
ASCII

DATASET UNSTRUCTURED_GRID
POINTS 104 float
0 0 0 
4 0 0 
4 6 0 
0 6 0 
0 0 4 
4 0 4 
4 6 4 
0 6 4 
4 6 4 
0 6 4 
0 0 4 
4 0 4 
0 6 0 
0 6 4 
4 6 0 
4 6 4 
4 0 0 
4 0 4 
0 0 0 
0 0 4 
0 6 0 
0 0 0 
4 6 0 
0 6 0 
0 0 0 
4 0 0 
0 6 0 
4 6 0 
4 6 4 
0 6 4 
0 0 0 
4 0 0 
4 0 4 
0 0 4 
0 6 4 
0 0.85 4 
0 0.85 4 
0 0 4 
4 0 4 
4 1.31667 4 
4 1.31667 4 
4 6 4 
4 0 0 
4 0.85 0 
4 0.85 0 
4 6 0 
0 0.85 4 
4 1.31667 4 
4 6 4 
0 6 4 
4 1.31667 4 
0 0.85 4 
0 0 4 
4 0 4 
0 0.85 4 
0 0 4 
0 0 0 
0 0.85 4 
0 0 0 
0 6 0 
0 0.85 4 
0 6 0 
0 6 4 
4 1.31667 4 
4 0.85 0 
4 6 0 
4 6 4 
4 0.85 0 
4 1.31667 4 
4 0 4 
4 0 0 
4 0.85 0 
4 6 0 
0 6 0 
4 0.85 0 
0 6 0 
0 0 0 
4 0.85 0 
0 0 0 
4 0 0 
4 1.31667 4 
0 0.85 4 
0 0.85 4 
0 0 0 
0 0.85 4 
0 6 0 
4 0.85 0 
4 1.31667 4 
4 0.85 0 
0 6 0 
4 0.85 0 
0 0 0 
4 1.31667 4 
0 0.85 4 
4 0.85 0 
4 0.85 0 
0 0.85 4 
0 0 0 
4 0.85 0 
0 0.85 4 
-1 0.15 -1 
5 0.85 -1 
5 1.55 5 
-1 0.85 5 

CELLS 38 142
8 0 1 2 3 4 5 6 7
2 8 9
2 10 11
2 12 13
2 14 15
2 16 17
2 18 19
2 20 21
2 22 23
2 24 25
4 26 27 28 29
4 30 31 32 33
2 34 35
2 36 37
2 38 39
2 40 41
2 42 43
2 44 45
4 46 47 48 49
4 50 51 52 53
3 54 55 56
3 57 58 59
3 60 61 62
4 63 64 65 66
4 67 68 69 70
3 71 72 73
3 74 75 76
3 77 78 79
2 80 81
2 82 83
2 84 85
2 86 87
2 88 89
2 90 91
3 92 93 94
3 95 96 97
2 98 99
4 100 101 102 103

CELL_TYPES 38
12
3
3
3
3
3
3
3
3
3
9
9
3
3
3
3
3
3
9
9
5
5
5
9
9
5
5
5
3
3
3
3
3
3
5
5
3
9

CELL_DATA 38
FIELD FieldData 3
material 1 38 int
1
1
1
1
1
1
1
3
1
1
1
1
3
3
3
3
3
3
3
4
3
4
5
3
4
3
4
5
2
2
3
2
3
2
2
2
2
100
elIndex 1 38 int
0
2
4
5
6
7
8
9
10
12
15
17
19
20
21
22
23
24
25
26
27
28
29
30
31
32
33
34
35
36
37
38
39
40
41
42
43
44
Dimension 1 38 int
3
1
1
1
1
1
1
1
1
1
2
2
1
1
1
1
1
1
2
2
2
2
2
2
2
2
2
2
1
1
1
1
1
1
2
2
1
2
