# vtk DataFile Version 3.0
TPZGeoMesh VTK Visualization
ASCII

DATASET UNSTRUCTURED_GRID
POINTS 176 float
0 0 0 
0.5 0 0 
0.5 0.5 0 
0 0.5 0 
0 0 0.5 
0.5 0 0.5 
0.5 0.5 0.5 
0 0.5 0.5 
0.5 0 0 
1 0 0 
1 0.5 0 
0.5 0.5 0 
0.5 0 0.5 
1 0 0.5 
1 0.5 0.5 
0.5 0.5 0.5 
0 0.5 0.5 
0 0 0.5 
0.5 0.5 0.5 
0 0.5 0.5 
0.5 0.5 0.5 
0.5 0 0.5 
0 0 0.5 
0.5 0 0.5 
0 0.5 0 
0 0.5 0.5 
0.5 0.5 0 
0.5 0.5 0.5 
0.5 0 0 
0.5 0 0.5 
0 0 0 
0 0 0.5 
0 0.5 0 
0 0 0 
0.5 0.5 0 
0 0.5 0 
0.5 0.5 0 
0.5 0 0 
0 0 0 
0.5 0 0 
1 0.5 0.5 
0.5 0.5 0.5 
1 0 0.5 
1 0.5 0.5 
0.5 0 0.5 
1 0 0.5 
1 0.5 0 
1 0.5 0.5 
1 0 0 
1 0 0.5 
1 0.5 0 
0.5 0.5 0 
1 0 0 
1 0.5 0 
0.5 0 0 
1 0 0 
0 0 0.5 
0.5 0 0.5 
0.5 0.5 0.5 
0 0.5 0.5 
0 0 0 
0 0.5 0 
0 0.5 0.5 
0 0 0.5 
0 0.5 0 
0.5 0.5 0 
0.5 0.5 0.5 
0 0.5 0.5 
0.5 0 0 
0.5 0.5 0 
0.5 0.5 0.5 
0.5 0 0.5 
0 0 0 
0.5 0 0 
0.5 0 0.5 
0 0 0.5 
0 0 0 
0.5 0 0 
0.5 0.5 0 
0 0.5 0 
0.5 0 0.5 
1 0 0.5 
1 0.5 0.5 
0.5 0.5 0.5 
0.5 0.5 0 
1 0.5 0 
1 0.5 0.5 
0.5 0.5 0.5 
1 0 0 
1 0.5 0 
1 0.5 0.5 
1 0 0.5 
0.5 0 0 
1 0 0 
1 0 0.5 
0.5 0 0.5 
0.5 0 0 
1 0 0 
1 0.5 0 
0.5 0.5 0 
-0.5 -0.5 0.5 
1.5 -0.5 0.5 
1.5 1.5 0.5 
-0.5 1.5 0.5 
0.5 0.5 0.5 
0.5 0.5 0 
1 0.5 0.5 
0.833333 0.333333 0.25 
0 0 0.5 
0 0.5 0.5 
0.5 0 0 
0 0 0 
1 0 0.5 
0.5 0.5 0.5 
1 0.5 0.5 
0.833333 0.333333 0.25 
0.5 0 0.5 
0.5 0 0 
0.833333 0.333333 0.25 
1 0 0 
0.5 0 0.5 
0.833333 0.333333 0.25 
1 0 0.5 
1 0 0 
1 0.5 0 
0.5 0.5 0 
1 0 0 
0.833333 0.333333 0.25 
1 0.5 0 
1 0 0 
1 0 0.5 
0.833333 0.333333 0.25 
0 0.5 0.5 
0.5 0 0 
0 0 0 
0 0.5 0 
0.5 0 0.5 
0 0.5 0.5 
0.5 0 0 
0 0 0.5 
0.833333 0.333333 0.25 
0.5 0.5 0 
0.5 0 0 
0.5 0.5 0.5 
1 0 0.5 
0.833333 0.333333 0.25 
0.5 0 0.5 
0.5 0.5 0.5 
0.5 0 0 
0.5 0.5 0 
0.833333 0.333333 0.25 
1 0 0 
0.833333 0.333333 0.25 
0.5 0 0 
0.5 0 0.5 
0.5 0.5 0.5 
1 0.5 0.5 
0.5 0.5 0 
1 0.5 0 
0.833333 0.333333 0.25 
1 0.5 0.5 
1 0.5 0 
1 0 0.5 
0.833333 0.333333 0.25 
0 0.5 0.5 
0.5 0 0 
0.5 0.5 0.5 
0.5 0 0.5 
0.5 0.5 0.5 
0.5 0 0 
0 0.5 0 
0.5 0.5 0 
0.5 0 0 
0 0.5 0.5 
0.5 0.5 0.5 
0 0.5 0 

CELLS 52 228
8 0 1 2 3 4 5 6 7
8 8 9 10 11 12 13 14 15
2 16 17
2 18 19
2 20 21
2 22 23
2 24 25
2 26 27
2 28 29
2 30 31
2 32 33
2 34 35
2 36 37
2 38 39
2 40 41
2 42 43
2 44 45
2 46 47
2 48 49
2 50 51
2 52 53
2 54 55
4 56 57 58 59
4 60 61 62 63
4 64 65 66 67
4 68 69 70 71
4 72 73 74 75
4 76 77 78 79
4 80 81 82 83
4 84 85 86 87
4 88 89 90 91
4 92 93 94 95
4 96 97 98 99
4 100 101 102 103
4 104 105 106 107
4 108 109 110 111
4 112 113 114 115
4 116 117 118 119
4 120 121 122 123
4 124 125 126 127
4 128 129 130 131
4 132 133 134 135
4 136 137 138 139
4 140 141 142 143
4 144 145 146 147
4 148 149 150 151
4 152 153 154 155
4 156 157 158 159
4 160 161 162 163
4 164 165 166 167
4 168 169 170 171
4 172 173 174 175

CELL_TYPES 52
12
12
3
3
3
3
3
3
3
3
3
3
3
3
3
3
3
3
3
3
3
3
9
9
9
9
9
9
9
9
9
9
9
9
10
10
10
10
10
10
10
10
10
10
10
10
10
10
10
10
10
10

CELL_DATA 52
FIELD FieldData 3
material 1 52 int
1
1
2
2
2
2
3
3
3
3
1
1
1
1
2
2
2
3
3
1
1
1
2
1
1
1
1
1
2
1
1
1
1
100
1
1
1
1
1
1
1
1
1
1
1
1
1
1
1
1
1
1
elIndex 1 52 int
0
1
2
3
4
5
6
7
8
9
10
11
12
13
14
15
16
17
18
19
20
21
22
23
24
25
26
27
28
29
30
31
32
33
34
35
36
41
42
43
44
45
46
48
49
50
51
52
53
54
55
56
Dimension 1 52 int
3
3
1
1
1
1
1
1
1
1
1
1
1
1
1
1
1
1
1
1
1
1
2
2
2
2
2
2
2
2
2
2
2
2
3
3
3
3
3
3
3
3
3
3
3
3
3
3
3
3
3
3
