# vtk DataFile Version 3.0
TPZGeoMesh VTK Visualization
ASCII

DATASET UNSTRUCTURED_GRID
POINTS 53 float
0 2 0 
2 2 0 
2 4 0 
0 4 0 
2 2 0 
4 2 0 
4 4 0 
2 4 0 
0 2 0 
0 0 0 
0 2 0 
2 2 0 
0 0 0 
2 0 0 
2 2 0 
4 2 0 
2 0 0 
4 0 0 
0 4 0 
0 2 0 
2 4 0 
0 4 0 
2 4 0 
2 2 0 
4 4 0 
2 4 0 
4 2 0 
4 4 0 
2 2 0 
2 1.01 0 
2 1.01 0 
2 0 0 
4 0 0 
4 0.403035 0 
4 0.403035 0 
4 2 0 
2 1.01 0 
2 2 0 
0 2 0 
2 1.01 0 
0 2 0 
0 0 0 
2 1.01 0 
0 0 0 
2 0 0 
2 1.01 0 
4 0.403035 0 
4 2 0 
2 2 0 
4 0.403035 0 
2 1.01 0 
2 0 0 
4 0 0 

CELLS 21 74
4 0 1 2 3
4 4 5 6 7
2 8 9
2 10 11
2 12 13
2 14 15
2 16 17
2 18 19
2 20 21
2 22 23
2 24 25
2 26 27
2 28 29
2 30 31
2 32 33
2 34 35
3 36 37 38
3 39 40 41
3 42 43 44
4 45 46 47 48
4 49 50 51 52

CELL_TYPES 21
9
9
3
3
3
3
3
3
3
3
3
3
3
3
3
3
5
5
5
9
9

CELL_DATA 21
FIELD FieldData 3
material 1 21 int
1
1
3
1
1
1
1
1
1
1
1
1
3
3
3
3
3
4
5
3
4
elIndex 1 21 int
2
3
4
5
7
8
10
11
12
13
14
15
16
17
18
19
20
21
22
23
24
Dimension 1 21 int
2
2
1
1
1
1
1
1
1
1
1
1
1
1
1
1
2
2
2
2
2
