# vtk DataFile Version 3.0
TPZGeoMesh VTK Visualization
ASCII

DATASET UNSTRUCTURED_GRID
POINTS 180 float
0 0 0 
1 0 0 
1 1 0 
0 1 0 
0 0 1 
1 0 1 
1 1 1 
0 1 1 
1 0 0 
2 0 0 
2 1 0 
1 1 0 
1 0 1 
2 0 1 
2 1 1 
1 1 1 
0 1 0 
1 1 0 
1 2 0 
0 2 0 
0 1 1 
1 1 1 
1 2 1 
0 2 1 
1 1 0 
2 1 0 
2 2 0 
1 2 0 
1 1 1 
2 1 1 
2 2 1 
1 2 1 
0 0 1 
1 0 1 
1 1 1 
0 1 1 
0 0 0 
0 1 0 
0 1 1 
0 0 1 
0 1 0 
1 1 0 
1 1 1 
0 1 1 
1 0 0 
1 1 0 
1 1 1 
1 0 1 
0 0 0 
1 0 0 
1 0 1 
0 0 1 
0 0 0 
1 0 0 
1 1 0 
0 1 0 
1 0 1 
2 0 1 
2 1 1 
1 1 1 
1 1 0 
2 1 0 
2 1 1 
1 1 1 
2 0 0 
2 1 0 
2 1 1 
2 0 1 
1 0 0 
2 0 0 
2 0 1 
1 0 1 
1 0 0 
2 0 0 
2 1 0 
1 1 0 
0 1 1 
1 1 1 
1 2 1 
0 2 1 
0 1 0 
0 2 0 
0 2 1 
0 1 1 
0 2 0 
1 2 0 
1 2 1 
0 2 1 
1 1 0 
1 2 0 
1 2 1 
1 1 1 
0 1 0 
1 1 0 
1 2 0 
0 2 0 
1 1 1 
2 1 1 
2 2 1 
1 2 1 
1 2 0 
2 2 0 
2 2 1 
1 2 1 
2 1 0 
2 2 0 
2 2 1 
2 1 1 
1 1 0 
2 1 0 
2 2 0 
1 2 0 
0 1 1 
0 0 1 
1 1 1 
0 1 1 
1 0 1 
1 1 1 
1 0 1 
0 0 1 
0 1 0 
0 1 1 
1 0 0 
1 0 1 
0 0 1 
0 0 0 
0 1 0 
0 0 0 
1 1 0 
0 1 0 
1 0 0 
1 1 0 
0 0 0 
1 0 0 
2 1 1 
1 1 1 
2 1 1 
2 0 1 
2 0 1 
1 0 1 
2 1 0 
2 1 1 
2 0 0 
2 0 1 
2 1 0 
1 1 0 
2 0 0 
2 1 0 
1 0 0 
2 0 0 
0 2 1 
0 1 1 
1 2 1 
0 2 1 
1 1 1 
1 2 1 
0 2 1 
0 2 0 
1 2 0 
1 2 1 
0 2 0 
0 1 0 
1 2 0 
0 2 0 
1 1 0 
1 2 0 
2 2 1 
1 2 1 
2 2 1 
2 1 1 
2 2 0 
2 2 1 
2 2 0 
1 2 0 
2 1 0 
2 2 0 
1 1 0 
1 1 0.5 
1 1 0.5 
1 1 1 

CELLS 58 238
8 0 1 2 3 4 5 6 7
8 8 9 10 11 12 13 14 15
8 16 17 18 19 20 21 22 23
8 24 25 26 27 28 29 30 31
4 32 33 34 35
4 36 37 38 39
4 40 41 42 43
4 44 45 46 47
4 48 49 50 51
4 52 53 54 55
4 56 57 58 59
4 60 61 62 63
4 64 65 66 67
4 68 69 70 71
4 72 73 74 75
4 76 77 78 79
4 80 81 82 83
4 84 85 86 87
4 88 89 90 91
4 92 93 94 95
4 96 97 98 99
4 100 101 102 103
4 104 105 106 107
4 108 109 110 111
2 112 113
2 114 115
2 116 117
2 118 119
2 120 121
2 122 123
2 124 125
2 126 127
2 128 129
2 130 131
2 132 133
2 134 135
2 136 137
2 138 139
2 140 141
2 142 143
2 144 145
2 146 147
2 148 149
2 150 151
2 152 153
2 154 155
2 156 157
2 158 159
2 160 161
2 162 163
2 164 165
2 166 167
2 168 169
2 170 171
2 172 173
2 174 175
2 176 177
2 178 179

CELL_TYPES 58
12
12
12
12
9
9
9
9
9
9
9
9
9
9
9
9
9
9
9
9
9
9
9
9
3
3
3
3
3
3
3
3
3
3
3
3
3
3
3
3
3
3
3
3
3
3
3
3
3
3
3
3
3
3
3
3
3
3

CELL_DATA 58
FIELD FieldData 2
material 1 58 int
1
1
1
1
4
4
4
4
4
4
4
4
4
4
4
4
4
4
4
4
4
4
4
4
4
4
4
4
4
4
4
4
4
4
4
4
4
4
4
4
4
4
4
4
4
4
4
4
4
4
4
4
4
4
4
4
18
18
elIndex 1 58 int
0
1
2
3
4
5
6
7
8
9
10
11
12
13
14
15
16
17
18
19
20
21
22
23
24
25
26
27
28
30
31
32
33
34
35
36
37
38
39
40
41
42
43
44
45
46
47
48
49
50
51
52
53
54
55
56
57
58
