# vtk DataFile Version 3.0
TPZGeoMesh VTK Visualization
ASCII

DATASET UNSTRUCTURED_GRID
POINTS 328 float
0 0 0 
4 0 0 
4 6 0 
0 6 0 
0 0 4 
4 0 4 
4 6 4 
0 6 4 
4 6 4 
0 6 4 
0 0 4 
4 0 4 
0 6 0 
0 6 4 
4 6 0 
4 6 4 
4 0 0 
4 0 4 
0 0 0 
0 0 4 
0 6 0 
0 0 0 
4 6 0 
0 6 0 
0 0 0 
4 0 0 
0 6 0 
4 6 0 
4 6 4 
0 6 4 
0 0 0 
4 0 0 
4 0 4 
0 0 4 
0 6 4 
0 0.85 4 
0 0.85 4 
0 0 4 
4 0 4 
4 1.31667 4 
4 1.31667 4 
4 6 4 
4 0 0 
4 0.85 0 
4 0.85 0 
4 6 0 
0 0.85 4 
4 1.31667 4 
4 6 4 
0 6 4 
4 1.31667 4 
0 0.85 4 
0 0 4 
4 0 4 
0 0.85 4 
0 0 4 
0 0 0 
0 0.85 4 
0 0 0 
0 6 0 
0 0.85 4 
0 6 0 
0 6 4 
4 1.31667 4 
4 0.85 0 
4 6 0 
4 6 4 
4 0.85 0 
4 1.31667 4 
4 0 4 
4 0 0 
4 0.85 0 
4 6 0 
0 6 0 
4 0.85 0 
0 6 0 
0 0 0 
4 0.85 0 
0 0 0 
4 0 0 
4 1.31667 4 
0 0.85 4 
0 0.85 4 
0 0 0 
0 0.85 4 
0 6 0 
4 0.85 0 
4 1.31667 4 
4 0.85 0 
0 6 0 
4 0.85 0 
0 0 0 
4 1.31667 4 
0 0.85 4 
4 0.85 0 
4 0.85 0 
0 0.85 4 
0 0 0 
4 0.85 0 
0 0.85 4 
0 6 0 
2 4.4 2 
2 3.54167 2.44785 
2.44785 3.54167 2 
2 3.54167 2.44785 
4 1.31667 4 
2.44785 3.54167 2 
4 6 4 
2 3.54167 2.44785 
0 0 0 
0 6 0 
2.44785 3.54167 2 
2 4.4 2 
2 3.54167 2.44785 
2.44785 3.54167 2 
4 6 4 
0 6 0 
2 4.4 2 
0 6 4 
2 3.54167 2.44785 
0 6 0 
2 4.4 2 
2.44785 3.54167 2 
4 6 0 
4 6 0 
2.44785 3.54167 2 
0 6 0 
4 0.85 0 
2 3.54167 2.44785 
0 6 4 
0 6 0 
0 0.85 4 
0 0 0 
0 6 0 
2.44785 3.54167 2 
4 0.85 0 
2 3.54167 2.44785 
0 6 0 
0 0 0 
0 0.85 4 
2 4.4 2 
0 6 4 
2 3.54167 2.44785 
4 6 4 
4 6 4 
2.44785 3.54167 2 
2 4.4 2 
4 6 0 
4 1.31667 4 
2.44785 3.54167 2 
0 0.85 4 
2 3.54167 2.44785 
4 1.31667 4 
0 0.85 4 
2.44785 3.54167 2 
4 0.85 0 
0 0 0 
0 0.85 4 
2.44785 3.54167 2 
2 3.54167 2.44785 
0 0 0 
2.44785 3.54167 2 
0 0.85 4 
4 0.85 0 
4 1.31667 4 
0 0.85 4 
0 6 4 
4 6 4 
2 3.54167 2.44785 
4 0.85 0 
4 1.31667 4 
4 6 4 
4 6 0 
2.44785 3.54167 2 
0 6 4 
0 6 0 
4 6 0 
4 6 4 
2 4.4 2 
2.44785 3.54167 2 
2 3.54167 2.44785 
2.44785 3.54167 2 
2 4.4 2 
0 6 0 
2.44785 3.54167 2 
2 3.54167 2.44785 
0 6 0 
2 3.54167 2.44785 
2 4.4 2 
0 6 0 
2 4.4 2 
4 6 4 
2.44785 3.54167 2 
4 6 4 
2 3.54167 2.44785 
4 1.31667 4 
2.44785 3.54167 2 
4 1.31667 4 
2 3.54167 2.44785 
0 0 0 
2.44785 3.54167 2 
0 0 0 
2 3.54167 2.44785 
4 6 4 
2 4.4 2 
0 6 4 
2 3.54167 2.44785 
0 6 4 
2 4.4 2 
4 6 0 
2.44785 3.54167 2 
4 6 0 
2 4.4 2 
4 0.85 0 
2.44785 3.54167 2 
0 0.85 4 
2 3.54167 2.44785 
2.44785 3.54167 2 
0 0.85 4 
2 3.54167 2.44785 
0 6 0 
2.44785 3.54167 2 
2 4.4 2 
2 3.54167 2.44785 
2.44785 3.54167 2 
0 6 0 
2 4.4 2 
2.44785 3.54167 2 
0 6 0 
2 4.4 2 
2 3.54167 2.44785 
2 3.54167 2.44785 
2.44785 3.54167 2 
4 6 4 
4 1.31667 4 
4 6 4 
2.44785 3.54167 2 
4 1.31667 4 
4 6 4 
2 3.54167 2.44785 
4 1.31667 4 
2.44785 3.54167 2 
2 3.54167 2.44785 
0 0 0 
0 6 0 
2.44785 3.54167 2 
0 0 0 
2.44785 3.54167 2 
2 3.54167 2.44785 
2 3.54167 2.44785 
0 6 0 
0 0 0 
4 6 4 
2.44785 3.54167 2 
2 4.4 2 
2 4.4 2 
2 3.54167 2.44785 
4 6 4 
2 3.54167 2.44785 
0 6 4 
0 6 0 
2 4.4 2 
0 6 4 
2 3.54167 2.44785 
0 6 4 
0 6 0 
2 4.4 2 
4 6 0 
2.44785 3.54167 2 
0 6 0 
2.44785 3.54167 2 
2 4.4 2 
4 6 0 
0 6 0 
4 6 0 
2 4.4 2 
0 6 0 
2.44785 3.54167 2 
4 0.85 0 
4 0.85 0 
4 6 0 
2.44785 3.54167 2 
2 3.54167 2.44785 
0 6 0 
0 0.85 4 
0 0.85 4 
0 6 4 
2 3.54167 2.44785 
0 0 0 
2.44785 3.54167 2 
4 0.85 0 
0 0 0 
0 0.85 4 
2 3.54167 2.44785 
4 6 4 
0 6 4 
2 3.54167 2.44785 
0 6 4 
4 6 4 
2 4.4 2 
4 6 4 
4 6 0 
2 4.4 2 
4 6 0 
4 6 4 
2.44785 3.54167 2 
4 1.31667 4 
0 0.85 4 
2 3.54167 2.44785 
0 0.85 4 
2.44785 3.54167 2 
2 3.54167 2.44785 
4 1.31667 4 
0 0.85 4 
2.44785 3.54167 2 
4 0.85 0 
4 1.31667 4 
2.44785 3.54167 2 
2.44785 3.54167 2 
0 0.85 4 
4 0.85 0 
0 0 0 
2.44785 3.54167 2 
0 0.85 4 
-1 0.15 -1 
5 0.85 -1 
5 1.55 5 
-1 0.85 5 

CELLS 112 440
8 0 1 2 3 4 5 6 7
2 8 9
2 10 11
2 12 13
2 14 15
2 16 17
2 18 19
2 20 21
2 22 23
2 24 25
4 26 27 28 29
4 30 31 32 33
2 34 35
2 36 37
2 38 39
2 40 41
2 42 43
2 44 45
4 46 47 48 49
4 50 51 52 53
3 54 55 56
3 57 58 59
3 60 61 62
4 63 64 65 66
4 67 68 69 70
3 71 72 73
3 74 75 76
3 77 78 79
2 80 81
2 82 83
2 84 85
2 86 87
2 88 89
2 90 91
3 92 93 94
3 95 96 97
2 98 99
4 100 101 102 103
4 104 105 106 107
4 108 109 110 111
4 112 113 114 115
4 116 117 118 119
4 120 121 122 123
4 124 125 126 127
4 128 129 130 131
4 132 133 134 135
4 136 137 138 139
4 140 141 142 143
4 144 145 146 147
4 148 149 150 151
4 152 153 154 155
4 156 157 158 159
4 160 161 162 163
5 164 165 166 167 168
5 169 170 171 172 173
5 174 175 176 177 178
2 179 180
2 181 182
2 183 184
2 185 186
2 187 188
2 189 190
2 191 192
2 193 194
2 195 196
2 197 198
2 199 200
2 201 202
2 203 204
2 205 206
2 207 208
2 209 210
2 211 212
2 213 214
2 215 216
2 217 218
3 219 220 221
3 222 223 224
3 225 226 227
3 228 229 230
3 231 232 233
3 234 235 236
3 237 238 239
3 240 241 242
3 243 244 245
3 246 247 248
3 249 250 251
3 252 253 254
3 255 256 257
3 258 259 260
3 261 262 263
3 264 265 266
3 267 268 269
3 270 271 272
3 273 274 275
3 276 277 278
3 279 280 281
3 282 283 284
3 285 286 287
3 288 289 290
3 291 292 293
3 294 295 296
3 297 298 299
3 300 301 302
3 303 304 305
3 306 307 308
3 309 310 311
3 312 313 314
3 315 316 317
3 318 319 320
3 321 322 323
4 324 325 326 327

CELL_TYPES 112
12
3
3
3
3
3
3
3
3
3
9
9
3
3
3
3
3
3
9
9
5
5
5
9
9
5
5
5
3
3
3
3
3
3
5
5
3
10
10
10
10
10
10
10
10
10
10
10
10
10
10
10
10
14
14
14
3
3
3
3
3
3
3
3
3
3
3
3
3
3
3
3
3
3
3
3
5
5
5
5
5
5
5
5
5
5
5
5
5
5
5
5
5
5
5
5
5
5
5
5
5
5
5
5
5
5
5
5
5
5
5
9

CELL_DATA 112
FIELD FieldData 3
material 1 112 int
1
1
1
1
1
1
1
3
1
1
1
1
3
3
3
3
3
3
3
4
3
4
5
3
4
3
4
5
2
2
3
2
3
2
2
2
2
1
1
1
1
1
1
1
1
1
1
1
1
1
1
1
1
1
1
1
1
1
1
1
1
1
1
1
1
1
1
1
1
1
1
1
1
1
1
1
1
1
1
1
1
1
1
1
1
1
1
1
1
1
1
1
1
1
1
1
1
1
1
1
1
1
1
1
1
1
1
1
1
1
1
100
elIndex 1 112 int
0
2
4
5
6
7
8
9
10
12
15
17
19
20
21
22
23
24
25
26
27
28
29
30
31
32
33
34
35
36
37
38
39
40
41
42
43
44
45
46
47
48
49
50
51
52
53
54
55
56
57
58
59
60
61
62
63
64
65
66
67
68
69
70
71
72
73
74
75
76
77
78
79
80
81
82
83
84
85
86
87
88
89
90
91
92
93
94
95
96
97
98
99
100
101
102
103
104
105
106
107
108
109
110
111
112
113
114
115
116
117
118
Dimension 1 112 int
3
1
1
1
1
1
1
1
1
1
2
2
1
1
1
1
1
1
2
2
2
2
2
2
2
2
2
2
1
1
1
1
1
1
2
2
1
3
3
3
3
3
3
3
3
3
3
3
3
3
3
3
3
3
3
3
1
1
1
1
1
1
1
1
1
1
1
1
1
1
1
1
1
1
1
1
2
2
2
2
2
2
2
2
2
2
2
2
2
2
2
2
2
2
2
2
2
2
2
2
2
2
2
2
2
2
2
2
2
2
2
2
