# vtk DataFile Version 3.0
TPZGeoMesh VTK Visualization
ASCII

DATASET UNSTRUCTURED_GRID
POINTS 320 float
0 0 0 
1 0 0 
1 1 0 
0 1 0 
0 0 1 
1 0 1 
1 1 1 
0 1 1 
0 0 1 
1 0 1 
1 1 1 
0 1 1 
0 0 2 
1 0 2 
1 1 2 
0 1 2 
1 0 0 
2 0 0 
2 1 0 
1 1 0 
1 0 1 
2 0 1 
2 1 1 
1 1 1 
1 0 1 
2 0 1 
2 1 1 
1 1 1 
1 0 2 
2 0 2 
2 1 2 
1 1 2 
0 1 0 
1 1 0 
1 2 0 
0 2 0 
0 1 1 
1 1 1 
1 2 1 
0 2 1 
0 1 1 
1 1 1 
1 2 1 
0 2 1 
0 1 2 
1 1 2 
1 2 2 
0 2 2 
1 1 0 
2 1 0 
2 2 0 
1 2 0 
1 1 1 
2 1 1 
2 2 1 
1 2 1 
1 1 1 
2 1 1 
2 2 1 
1 2 1 
1 1 2 
2 1 2 
2 2 2 
1 2 2 
0 1 1 
0 0 1 
0 1 1 
1 1 1 
1 1 1 
1 0 1 
0 0 1 
1 0 1 
0 1 0 
0 1 1 
1 1 0 
1 1 1 
1 0 0 
1 0 1 
0 0 0 
0 0 1 
0 1 0 
0 0 0 
0 1 0 
1 1 0 
1 1 0 
1 0 0 
0 0 0 
1 0 0 
0 1 2 
0 0 2 
0 1 2 
1 1 2 
1 1 2 
1 0 2 
0 0 2 
1 0 2 
0 1 1 
0 1 2 
1 1 1 
1 1 2 
1 0 1 
1 0 2 
0 0 1 
0 0 2 
1 1 1 
2 1 1 
2 0 1 
2 1 1 
1 0 1 
2 0 1 
2 1 0 
2 1 1 
2 0 0 
2 0 1 
1 1 0 
2 1 0 
2 0 0 
2 1 0 
1 0 0 
2 0 0 
1 1 2 
2 1 2 
2 0 2 
2 1 2 
1 0 2 
2 0 2 
2 1 1 
2 1 2 
2 0 1 
2 0 2 
0 2 1 
0 1 1 
1 2 1 
0 2 1 
1 2 1 
1 1 1 
0 2 0 
0 2 1 
1 2 0 
1 2 1 
0 2 0 
0 1 0 
1 2 0 
0 2 0 
1 2 0 
1 1 0 
0 2 2 
0 1 2 
1 2 2 
0 2 2 
1 2 2 
1 1 2 
0 2 1 
0 2 2 
1 2 1 
1 2 2 
2 2 1 
1 2 1 
2 1 1 
2 2 1 
2 2 0 
2 2 1 
2 2 0 
1 2 0 
2 1 0 
2 2 0 
2 2 2 
1 2 2 
2 1 2 
2 2 2 
2 2 1 
2 2 2 
0 0 1 
1 0 1 
1 1 1 
0 1 1 
0 0 0 
0 1 0 
0 1 1 
0 0 1 
0 1 0 
1 1 0 
1 1 1 
0 1 1 
1 0 0 
1 1 0 
1 1 1 
1 0 1 
0 0 0 
1 0 0 
1 0 1 
0 0 1 
0 0 0 
1 0 0 
1 1 0 
0 1 0 
0 0 2 
1 0 2 
1 1 2 
0 1 2 
0 0 1 
0 1 1 
0 1 2 
0 0 2 
0 1 1 
1 1 1 
1 1 2 
0 1 2 
1 0 1 
1 1 1 
1 1 2 
1 0 2 
0 0 1 
1 0 1 
1 0 2 
0 0 2 
1 0 1 
2 0 1 
2 1 1 
1 1 1 
1 1 0 
2 1 0 
2 1 1 
1 1 1 
2 0 0 
2 1 0 
2 1 1 
2 0 1 
1 0 0 
2 0 0 
2 0 1 
1 0 1 
1 0 0 
2 0 0 
2 1 0 
1 1 0 
1 0 2 
2 0 2 
2 1 2 
1 1 2 
1 1 1 
2 1 1 
2 1 2 
1 1 2 
2 0 1 
2 1 1 
2 1 2 
2 0 2 
1 0 1 
2 0 1 
2 0 2 
1 0 2 
0 1 1 
1 1 1 
1 2 1 
0 2 1 
0 1 0 
0 2 0 
0 2 1 
0 1 1 
0 2 0 
1 2 0 
1 2 1 
0 2 1 
1 1 0 
1 2 0 
1 2 1 
1 1 1 
0 1 0 
1 1 0 
1 2 0 
0 2 0 
0 1 2 
1 1 2 
1 2 2 
0 2 2 
0 1 1 
0 2 1 
0 2 2 
0 1 2 
0 2 1 
1 2 1 
1 2 2 
0 2 2 
1 1 1 
1 2 1 
1 2 2 
1 1 2 
1 1 1 
2 1 1 
2 2 1 
1 2 1 
1 2 0 
2 2 0 
2 2 1 
1 2 1 
2 1 0 
2 2 0 
2 2 1 
2 1 1 
1 1 0 
2 1 0 
2 2 0 
1 2 0 
1 1 2 
2 1 2 
2 2 2 
1 2 2 
1 2 1 
2 2 1 
2 2 2 
1 2 2 
2 1 1 
2 2 1 
2 2 2 
2 1 2 
-1 1.9 -1 
3 1.9 -1 
3 1.9 3 
-1 1.9 3 

CELLS 99 419
8 0 1 2 3 4 5 6 7
8 8 9 10 11 12 13 14 15
8 16 17 18 19 20 21 22 23
8 24 25 26 27 28 29 30 31
8 32 33 34 35 36 37 38 39
8 40 41 42 43 44 45 46 47
8 48 49 50 51 52 53 54 55
8 56 57 58 59 60 61 62 63
2 64 65
2 66 67
2 68 69
2 70 71
2 72 73
2 74 75
2 76 77
2 78 79
2 80 81
2 82 83
2 84 85
2 86 87
2 88 89
2 90 91
2 92 93
2 94 95
2 96 97
2 98 99
2 100 101
2 102 103
2 104 105
2 106 107
2 108 109
2 110 111
2 112 113
2 114 115
2 116 117
2 118 119
2 120 121
2 122 123
2 124 125
2 126 127
2 128 129
2 130 131
2 132 133
2 134 135
2 136 137
2 138 139
2 140 141
2 142 143
2 144 145
2 146 147
2 148 149
2 150 151
2 152 153
2 154 155
2 156 157
2 158 159
2 160 161
2 162 163
2 164 165
2 166 167
2 168 169
2 170 171
4 172 173 174 175
4 176 177 178 179
4 180 181 182 183
4 184 185 186 187
4 188 189 190 191
4 192 193 194 195
4 196 197 198 199
4 200 201 202 203
4 204 205 206 207
4 208 209 210 211
4 212 213 214 215
4 216 217 218 219
4 220 221 222 223
4 224 225 226 227
4 228 229 230 231
4 232 233 234 235
4 236 237 238 239
4 240 241 242 243
4 244 245 246 247
4 248 249 250 251
4 252 253 254 255
4 256 257 258 259
4 260 261 262 263
4 264 265 266 267
4 268 269 270 271
4 272 273 274 275
4 276 277 278 279
4 280 281 282 283
4 284 285 286 287
4 288 289 290 291
4 292 293 294 295
4 296 297 298 299
4 300 301 302 303
4 304 305 306 307
4 308 309 310 311
4 312 313 314 315
4 316 317 318 319

CELL_TYPES 99
12
12
12
12
12
12
12
12
3
3
3
3
3
3
3
3
3
3
3
3
3
3
3
3
3
3
3
3
3
3
3
3
3
3
3
3
3
3
3
3
3
3
3
3
3
3
3
3
3
3
3
3
3
3
3
3
3
3
3
3
3
3
9
9
9
9
9
9
9
9
9
9
9
9
9
9
9
9
9
9
9
9
9
9
9
9
9
9
9
9
9
9
9
9
9
9
9
9
9

CELL_DATA 99
FIELD FieldData 3
material 1 99 int
1
1
1
1
1
1
1
1
1
1
1
1
1
1
1
1
1
1
1
1
1
1
1
1
1
1
1
1
1
1
1
1
1
1
1
1
1
1
1
1
1
3
2
3
2
2
3
2
3
3
2
3
2
2
2
3
2
2
3
2
3
2
1
1
1
1
1
1
1
1
1
1
1
1
1
1
1
1
1
1
1
1
1
1
2
1
1
1
1
2
1
1
2
1
1
1
2
1
100
elIndex 1 99 int
0
1
2
3
4
5
6
7
8
9
10
11
12
13
14
15
16
17
18
19
20
21
22
23
24
25
26
27
28
29
30
31
32
33
34
35
36
37
38
39
40
41
42
43
44
45
46
47
48
49
50
51
52
53
54
55
56
57
58
59
60
61
62
63
64
65
66
67
68
69
70
71
72
73
74
75
76
77
78
79
80
81
82
83
84
85
86
87
88
89
90
91
92
93
94
95
96
97
124
Dimension 1 99 int
3
3
3
3
3
3
3
3
1
1
1
1
1
1
1
1
1
1
1
1
1
1
1
1
1
1
1
1
1
1
1
1
1
1
1
1
1
1
1
1
1
1
1
1
1
1
1
1
1
1
1
1
1
1
1
1
1
1
1
1
1
1
2
2
2
2
2
2
2
2
2
2
2
2
2
2
2
2
2
2
2
2
2
2
2
2
2
2
2
2
2
2
2
2
2
2
2
2
2
