# vtk DataFile Version 3.0
TPZGeoMesh VTK Visualization
ASCII

DATASET UNSTRUCTURED_GRID
POINTS 19 float
0 0 0 
1 0 0 
1 1 0 
0 1 0 
-1 0 0 
0 0 0 
0 1 0 
0 0 0 
0 1 0 
1 1 0 
0 1 0 
1 0 0 
1 1 0 
0 0 0 
1 0 0 
0 1 0 
-1 0 0 
-1 0 0 
0 0 0 

CELLS 8 27
4 0 1 2 3
3 4 5 6
2 7 8
2 9 10
2 11 12
2 13 14
2 15 16
2 17 18

CELL_TYPES 8
9
5
3
3
3
3
3
3

CELL_DATA 8
FIELD FieldData 3
material 1 8 int
1
1
1
1
1
1
1
1
elIndex 1 8 int
0
1
2
3
4
5
6
7
Dimension 1 8 int
2
2
1
1
1
1
1
1
