# vtk DataFile Version 3.0
TPZGeoMesh VTK Visualization
ASCII

DATASET UNSTRUCTURED_GRID
POINTS 180 float
0 0 0 
1 0 0 
1 1 0 
0 1 0 
0 0 1 
1 0 1 
1 1 1 
0 1 1 
1 0 0 
2 0 0 
2 1 0 
1 1 0 
1 0 1 
2 0 1 
2 1 1 
1 1 1 
0 1 0 
1 1 0 
1 2 0 
0 2 0 
0 1 1 
1 1 1 
1 2 1 
0 2 1 
1 1 0 
2 1 0 
2 2 0 
1 2 0 
1 1 1 
2 1 1 
2 2 1 
1 2 1 
0 1 1 
0 0 1 
0 1 1 
1 1 1 
1 1 1 
1 0 1 
0 0 1 
1 0 1 
0 1 0 
0 1 1 
1 0 0 
1 0 1 
0 0 0 
0 0 1 
0 1 0 
0 0 0 
0 1 0 
1 1 0 
1 1 0 
1 0 0 
0 0 0 
1 0 0 
1 1 1 
2 1 1 
2 0 1 
2 1 1 
1 0 1 
2 0 1 
2 1 0 
2 1 1 
2 0 0 
2 0 1 
1 1 0 
2 1 0 
2 0 0 
2 1 0 
1 0 0 
2 0 0 
0 2 1 
0 1 1 
1 2 1 
0 2 1 
1 2 1 
1 1 1 
0 2 0 
0 2 1 
1 2 0 
1 2 1 
0 2 0 
0 1 0 
1 2 0 
0 2 0 
1 2 0 
1 1 0 
2 2 1 
1 2 1 
2 1 1 
2 2 1 
2 2 0 
2 2 1 
2 2 0 
1 2 0 
2 1 0 
2 2 0 
0 0 1 
1 0 1 
1 1 1 
0 1 1 
0 0 0 
0 1 0 
0 1 1 
0 0 1 
0 1 0 
1 1 0 
1 1 1 
0 1 1 
1 0 0 
1 1 0 
1 1 1 
1 0 1 
0 0 0 
1 0 0 
1 0 1 
0 0 1 
0 0 0 
1 0 0 
1 1 0 
0 1 0 
1 0 1 
2 0 1 
2 1 1 
1 1 1 
1 1 0 
2 1 0 
2 1 1 
1 1 1 
2 0 0 
2 1 0 
2 1 1 
2 0 1 
1 0 0 
2 0 0 
2 0 1 
1 0 1 
1 0 0 
2 0 0 
2 1 0 
1 1 0 
0 1 1 
1 1 1 
1 2 1 
0 2 1 
0 1 0 
0 2 0 
0 2 1 
0 1 1 
0 2 0 
1 2 0 
1 2 1 
0 2 1 
1 1 0 
1 2 0 
1 2 1 
1 1 1 
0 1 0 
1 1 0 
1 2 0 
0 2 0 
1 1 1 
2 1 1 
2 2 1 
1 2 1 
1 2 0 
2 2 0 
2 2 1 
1 2 1 
2 1 0 
2 2 0 
2 2 1 
2 1 1 
1 1 0 
2 1 0 
2 2 0 
1 2 0 
1 1 0 
1 1 0.5 
1 1 0.5 
1 1 1 

CELLS 58 238
8 0 1 2 3 4 5 6 7
8 8 9 10 11 12 13 14 15
8 16 17 18 19 20 21 22 23
8 24 25 26 27 28 29 30 31
2 32 33
2 34 35
2 36 37
2 38 39
2 40 41
2 42 43
2 44 45
2 46 47
2 48 49
2 50 51
2 52 53
2 54 55
2 56 57
2 58 59
2 60 61
2 62 63
2 64 65
2 66 67
2 68 69
2 70 71
2 72 73
2 74 75
2 76 77
2 78 79
2 80 81
2 82 83
2 84 85
2 86 87
2 88 89
2 90 91
2 92 93
2 94 95
4 96 97 98 99
4 100 101 102 103
4 104 105 106 107
4 108 109 110 111
4 112 113 114 115
4 116 117 118 119
4 120 121 122 123
4 124 125 126 127
4 128 129 130 131
4 132 133 134 135
4 136 137 138 139
4 140 141 142 143
4 144 145 146 147
4 148 149 150 151
4 152 153 154 155
4 156 157 158 159
4 160 161 162 163
4 164 165 166 167
4 168 169 170 171
4 172 173 174 175
2 176 177
2 178 179

CELL_TYPES 58
12
12
12
12
3
3
3
3
3
3
3
3
3
3
3
3
3
3
3
3
3
3
3
3
3
3
3
3
3
3
3
3
3
3
3
3
9
9
9
9
9
9
9
9
9
9
9
9
9
9
9
9
9
9
9
9
3
3

CELL_DATA 58
FIELD FieldData 3
material 1 58 int
1
1
1
1
1
1
1
1
1
1
1
1
1
1
1
1
1
1
1
1
1
1
1
1
1
1
1
1
1
1
1
1
1
1
1
1
1
1
1
1
1
1
1
1
1
1
1
1
1
1
1
1
1
1
1
1
18
18
elIndex 1 58 int
0
1
2
3
4
5
6
7
8
10
11
12
13
14
15
16
17
18
19
20
21
22
23
24
25
26
27
28
29
30
31
32
33
34
35
36
37
38
39
40
41
42
43
44
45
46
47
48
49
50
51
52
53
54
55
56
57
58
Dimension 1 58 int
3
3
3
3
1
1
1
1
1
1
1
1
1
1
1
1
1
1
1
1
1
1
1
1
1
1
1
1
1
1
1
1
1
1
1
1
2
2
2
2
2
2
2
2
2
2
2
2
2
2
2
2
2
2
2
2
1
1
