# vtk DataFile Version 3.0
TPZGeoMesh VTK Visualization
ASCII

DATASET UNSTRUCTURED_GRID
POINTS 273 float
-1 -1 -1 
1 -1 -1 
-1 1 -1 
-1 -1 1 
1 -1 -1 
-1 1 -1 
-1 -1 1 
1 -1 1 
-1 -1 1 
1 -1 1 
-1 1 -1 
-1 1 1 
1 -1 -1 
-1 1 -1 
1 -1 1 
1 1 -1 
-1 1 -1 
-1 1 1 
1 -1 1 
1 1 -1 
1 -1 1 
-1 1 1 
1 1 1 
1 1 -1 
-1 -1 1 
1 -1 -1 
-1 -1 -1 
-1 -1 1 
-1 -1 -1 
1 -1 -1 
-1 -1 1 
1 -1 1 
1 -1 1 
1 -1 -1 
-1 1 -1 
-1 1 1 
-1 1 -1 
1 1 -1 
-1 1 1 
1 1 -1 
1 1 1 
1 1 -1 
-1 1 1 
1 1 1 
-1 -1 -1 
1 -1 -1 
-1 -1 1 
1 -1 -1 
-1 -1 1 
1 -1 1 
-1 1 -1 
-1 1 1 
1 1 -1 
-1 1 1 
1 1 1 
1 1 -1 
-1 1 -1 
-1 -0.424365 0.424365 
-1 -0.424365 0.424365 
-1 -1 1 
-1 1 -1 
-1 -0.424365 -1 
-1 -0.424365 -1 
-1 -1 -1 
1 -1 -1 
0.209483 -0.209483 -1 
0.209483 -0.209483 -1 
-1 1 -1 
1 -1 1 
0.209483 -0.209483 0.209483 
0.209483 -0.209483 0.209483 
-1 1 -1 
1 -1 1 
0.209483 -0.209483 1 
0.209483 -0.209483 1 
-1 1 1 
-1 -1 1 
-1 -0.424365 1 
-1 -0.424365 1 
-1 1 1 
1 -1 1 
1 -0.0690355 0.0690355 
1 -0.0690355 0.0690355 
1 1 -1 
1 -1 -1 
1 -0.0690355 -1 
1 -0.0690355 -1 
1 1 -1 
1 1 1 
1 -0.0690355 1 
1 -0.0690355 1 
1 -1 1 
-1 -0.424365 0.424365 
-1 -0.424365 -1 
-1 1 -1 
-1 -0.424365 -1 
-1 -0.424365 0.424365 
-1 -1 1 
-1 -1 -1 
-1 -0.424365 0.424365 
0.209483 -0.209483 -1 
-1 1 -1 
0.209483 -0.209483 -1 
-1 -0.424365 0.424365 
-1 -1 1 
1 -1 -1 
-1 -0.424365 -1 
0.209483 -0.209483 -1 
-1 1 -1 
0.209483 -0.209483 -1 
-1 -0.424365 -1 
-1 -1 -1 
1 -1 -1 
-1 -0.424365 0.424365 
0.209483 -0.209483 0.209483 
-1 1 -1 
0.209483 -0.209483 0.209483 
-1 -0.424365 0.424365 
-1 -1 1 
1 -1 1 
0.209483 -0.209483 0.209483 
0.209483 -0.209483 -1 
-1 1 -1 
0.209483 -0.209483 -1 
0.209483 -0.209483 0.209483 
1 -1 1 
1 -1 -1 
-1 -0.424365 0.424365 
-1 -0.424365 1 
-1 -1 1 
-1 -0.424365 1 
-1 -0.424365 0.424365 
-1 1 -1 
-1 1 1 
0.209483 -0.209483 0.209483 
0.209483 -0.209483 1 
1 -1 1 
0.209483 -0.209483 1 
0.209483 -0.209483 0.209483 
-1 1 -1 
-1 1 1 
-1 -0.424365 1 
0.209483 -0.209483 1 
-1 1 1 
0.209483 -0.209483 1 
-1 -0.424365 1 
-1 -1 1 
1 -1 1 
1 -0.0690355 -1 
1 -0.0690355 0.0690355 
1 1 -1 
1 -0.0690355 0.0690355 
1 -0.0690355 -1 
1 -1 -1 
1 -1 1 
1 -0.0690355 0.0690355 
0.209483 -0.209483 0.209483 
1 -1 1 
0.209483 -0.209483 0.209483 
1 -0.0690355 0.0690355 
1 1 -1 
-1 1 -1 
0.209483 -0.209483 -1 
1 -0.0690355 -1 
1 -1 -1 
1 -0.0690355 -1 
0.209483 -0.209483 -1 
-1 1 -1 
1 1 -1 
0.209483 -0.209483 1 
1 -0.0690355 0.0690355 
1 -1 1 
1 -0.0690355 0.0690355 
0.209483 -0.209483 1 
-1 1 1 
1 1 -1 
1 -0.0690355 1 
1 -0.0690355 0.0690355 
1 -1 1 
1 -0.0690355 0.0690355 
1 -0.0690355 1 
1 1 1 
1 1 -1 
0.209483 -0.209483 1 
1 -0.0690355 1 
1 -1 1 
1 -0.0690355 1 
0.209483 -0.209483 1 
-1 1 1 
1 1 1 
-1 -0.424365 -1 
-1 -0.424365 0.424365 
0.209483 -0.209483 -1 
-1 -0.424365 0.424365 
0.209483 -0.209483 -1 
-1 -0.424365 -1 
0.209483 -0.209483 0.209483 
-1 -0.424365 0.424365 
0.209483 -0.209483 -1 
0.209483 -0.209483 0.209483 
-1 -0.424365 1 
-1 -0.424365 0.424365 
0.209483 -0.209483 1 
0.209483 -0.209483 0.209483 
0.209483 -0.209483 1 
-1 -0.424365 1 
1 -0.0690355 0.0690355 
1 -0.0690355 -1 
0.209483 -0.209483 0.209483 
1 -0.0690355 0.0690355 
1 -0.0690355 -1 
0.209483 -0.209483 -1 
1 -0.0690355 0.0690355 
0.209483 -0.209483 1 
1 -0.0690355 0.0690355 
1 -0.0690355 1 
1 -0.0690355 1 
0.209483 -0.209483 1 
0.209483 -0.209483 -1 
1 -0.0690355 -1 
0.720617 -0.118672 -0.544296 
-1 -0.424365 1 
-1 -0.424365 0.424365 
-0.395259 -0.316924 0.684774 
0.209483 -0.209483 0.209483 
0.209483 -0.209483 1 
-0.395259 -0.316924 0.684774 
1 -0.0690355 0.0690355 
0.209483 -0.209483 0.209483 
0.720617 -0.118672 -0.544296 
-1 -0.424365 0.424365 
0.209483 -0.209483 -1 
0.209483 -0.209483 0.209483 
-1 -0.424365 0.424365 
0.209483 -0.209483 0.209483 
-0.395259 -0.316924 0.684774 
0.209483 -0.209483 0.209483 
0.209483 -0.209483 -1 
0.720617 -0.118672 -0.544296 
0.209483 -0.209483 1 
-1 -0.424365 1 
-0.395259 -0.316924 0.684774 
1 -0.0690355 -1 
1 1 -1 
0.720617 -0.118672 -0.544296 
-1 -0.424365 0.424365 
-1 -0.424365 -1 
0.209483 -0.209483 -1 
0.209483 -0.209483 1 
1 -0.0690355 0.0690355 
1 -0.0690355 1 
0.209483 -0.209483 -1 
0.720617 -0.118672 -0.544296 
0.720617 -0.118672 -0.544296 
1 -0.0690355 -1 
-1 -0.424365 1 
-0.395259 -0.316924 0.684774 
-0.395259 -0.316924 0.684774 
-1 -0.424365 0.424365 
0.209483 -0.209483 0.209483 
-0.395259 -0.316924 0.684774 
-0.395259 -0.316924 0.684774 
0.209483 -0.209483 1 
1 -0.0690355 0.0690355 
0.720617 -0.118672 -0.544296 
0.720617 -0.118672 -0.544296 
0.209483 -0.209483 0.209483 
1 1 -1 
0.720617 -0.118672 -0.544296 
-2.27 -0.65 -1.5 
1.67 0.05 -1.5 
1.67 0.05 1.5 
-2.27 -0.65 1.5 

CELLS 101 374
4 0 1 2 3
4 4 5 6 7
4 8 9 10 11
4 12 13 14 15
4 16 17 18 19
4 20 21 22 23
2 24 25
2 26 27
2 28 29
2 30 31
2 32 33
2 34 35
2 36 37
2 38 39
2 40 41
2 42 43
3 44 45 46
3 47 48 49
3 50 51 52
3 53 54 55
2 56 57
2 58 59
2 60 61
2 62 63
2 64 65
2 66 67
2 68 69
2 70 71
2 72 73
2 74 75
2 76 77
2 78 79
2 80 81
2 82 83
2 84 85
2 86 87
2 88 89
2 90 91
3 92 93 94
4 95 96 97 98
3 99 100 101
4 102 103 104 105
3 106 107 108
4 109 110 111 112
3 113 114 115
4 116 117 118 119
3 120 121 122
4 123 124 125 126
3 127 128 129
4 130 131 132 133
3 134 135 136
4 137 138 139 140
3 141 142 143
4 144 145 146 147
3 148 149 150
4 151 152 153 154
3 155 156 157
4 158 159 160 161
3 162 163 164
4 165 166 167 168
3 169 170 171
4 172 173 174 175
3 176 177 178
4 179 180 181 182
3 183 184 185
4 186 187 188 189
2 190 191
2 192 193
2 194 195
2 196 197
2 198 199
2 200 201
2 202 203
2 204 205
2 206 207
2 208 209
2 210 211
2 212 213
2 214 215
2 216 217
3 218 219 220
3 221 222 223
3 224 225 226
3 227 228 229
3 230 231 232
3 233 234 235
3 236 237 238
3 239 240 241
3 242 243 244
3 245 246 247
3 248 249 250
2 251 252
2 253 254
2 255 256
2 257 258
2 259 260
2 261 262
2 263 264
2 265 266
2 267 268
4 269 270 271 272

CELL_TYPES 101
10
10
10
10
10
10
3
3
3
3
3
3
3
3
3
3
5
5
5
5
3
3
3
3
3
3
3
3
3
3
3
3
3
3
3
3
3
3
5
9
5
9
5
9
5
9
5
9
5
9
5
9
5
9
5
9
5
9
5
9
5
9
5
9
5
9
3
3
3
3
3
3
3
3
3
3
3
3
3
3
5
5
5
5
5
5
5
5
5
5
5
3
3
3
3
3
3
3
3
3
9

CELL_DATA 101
FIELD FieldData 3
material 1 101 int
1
1
1
1
1
1
1
1
1
1
1
1
1
1
1
1
1
1
1
1
3
3
3
3
3
3
3
3
3
3
3
3
3
2
3
2
3
3
3
4
3
4
3
4
3
4
3
4
3
4
3
4
3
4
3
4
3
4
3
4
3
4
3
4
3
4
2
2
2
2
2
2
2
2
3
2
2
2
2
2
2
2
2
2
2
2
2
2
2
2
2
2
2
2
2
2
2
2
2
2
100
elIndex 1 101 int
0
1
2
3
4
5
7
8
11
12
14
15
19
21
22
24
27
29
39
41
43
44
45
46
47
48
49
50
51
52
53
54
55
56
57
58
59
60
61
62
63
64
65
66
67
68
69
70
71
72
73
74
75
76
77
78
79
80
81
82
83
84
85
86
87
88
89
90
91
92
93
94
95
96
97
98
99
100
101
102
107
108
109
110
123
124
125
127
128
131
132
133
134
135
136
137
138
139
140
144
148
Dimension 1 101 int
3
3
3
3
3
3
1
1
1
1
1
1
1
1
1
1
2
2
2
2
1
1
1
1
1
1
1
1
1
1
1
1
1
1
1
1
1
1
2
2
2
2
2
2
2
2
2
2
2
2
2
2
2
2
2
2
2
2
2
2
2
2
2
2
2
2
1
1
1
1
1
1
1
1
1
1
1
1
1
1
2
2
2
2
2
2
2
2
2
2
2
1
1
1
1
1
1
1
1
1
2
