# vtk DataFile Version 3.0
TPZGeoMesh VTK Visualization
ASCII

DATASET UNSTRUCTURED_GRID
POINTS 364 float
0 0 0 
2 0 0 
2 3 0 
0 3 0 
0 0 2 
2 0 2 
2 3 2 
0 3 2 
0 0 2 
2 0 2 
2 3 2 
0 3 2 
0 0 4 
2 0 4 
2 3 4 
0 3 4 
2 0 0 
4 0 0 
4 3 0 
2 3 0 
2 0 2 
4 0 2 
4 3 2 
2 3 2 
2 0 2 
4 0 2 
4 3 2 
2 3 2 
2 0 4 
4 0 4 
4 3 4 
2 3 4 
0 3 0 
2 3 0 
2 6 0 
0 6 0 
0 3 2 
2 3 2 
2 6 2 
0 6 2 
0 3 2 
2 3 2 
2 6 2 
0 6 2 
0 3 4 
2 3 4 
2 6 4 
0 6 4 
2 3 0 
4 3 0 
4 6 0 
2 6 0 
2 3 2 
4 3 2 
4 6 2 
2 6 2 
2 3 2 
4 3 2 
4 6 2 
2 6 2 
2 3 4 
4 3 4 
4 6 4 
2 6 4 
0 3 2 
0 0 2 
0 3 2 
2 3 2 
2 3 2 
2 0 2 
0 0 2 
2 0 2 
0 3 0 
0 3 2 
2 3 0 
2 3 2 
2 0 0 
2 0 2 
0 0 0 
0 0 2 
0 3 0 
0 0 0 
0 3 0 
2 3 0 
2 3 0 
2 0 0 
0 0 0 
2 0 0 
0 3 4 
0 0 4 
0 3 4 
2 3 4 
2 3 4 
2 0 4 
0 0 4 
2 0 4 
0 3 2 
0 3 4 
2 3 2 
2 3 4 
2 0 2 
2 0 4 
0 0 2 
0 0 4 
2 3 2 
4 3 2 
4 0 2 
4 3 2 
2 0 2 
4 0 2 
4 3 0 
4 3 2 
4 0 0 
4 0 2 
2 3 0 
4 3 0 
4 0 0 
4 3 0 
2 0 0 
4 0 0 
2 3 4 
4 3 4 
4 0 4 
4 3 4 
2 0 4 
4 0 4 
4 3 2 
4 3 4 
4 0 2 
4 0 4 
0 6 2 
0 3 2 
2 6 2 
0 6 2 
2 6 2 
2 3 2 
0 6 0 
0 6 2 
2 6 0 
2 6 2 
0 6 0 
0 3 0 
2 6 0 
0 6 0 
2 6 0 
2 3 0 
0 6 4 
0 3 4 
2 6 4 
0 6 4 
2 6 4 
2 3 4 
0 6 2 
0 6 4 
2 6 2 
2 6 4 
4 6 2 
2 6 2 
4 3 2 
4 6 2 
4 6 0 
4 6 2 
4 6 0 
2 6 0 
4 3 0 
4 6 0 
4 6 4 
2 6 4 
4 6 2 
4 6 4 
0 0 2 
2 0 2 
2 3 2 
0 3 2 
0 0 0 
0 3 0 
0 3 2 
0 0 2 
2 0 0 
2 3 0 
2 3 2 
2 0 2 
0 0 0 
2 0 0 
2 0 2 
0 0 2 
0 0 0 
2 0 0 
2 3 0 
0 3 0 
0 0 4 
2 0 4 
2 3 4 
0 3 4 
0 0 2 
0 3 2 
0 3 4 
0 0 4 
0 3 2 
2 3 2 
2 3 4 
0 3 4 
2 0 2 
2 3 2 
2 3 4 
2 0 4 
0 0 2 
2 0 2 
2 0 4 
0 0 4 
2 0 2 
4 0 2 
4 3 2 
2 3 2 
2 3 0 
4 3 0 
4 3 2 
2 3 2 
4 0 0 
4 3 0 
4 3 2 
4 0 2 
2 0 0 
4 0 0 
4 0 2 
2 0 2 
2 0 0 
4 0 0 
4 3 0 
2 3 0 
2 0 4 
4 0 4 
4 3 4 
2 3 4 
2 3 2 
4 3 2 
4 3 4 
2 3 4 
4 0 2 
4 3 2 
4 3 4 
4 0 4 
2 0 2 
4 0 2 
4 0 4 
2 0 4 
0 3 2 
2 3 2 
2 6 2 
0 6 2 
0 3 0 
0 6 0 
0 6 2 
0 3 2 
0 6 0 
2 6 0 
2 6 2 
0 6 2 
2 3 0 
2 6 0 
2 6 2 
2 3 2 
0 3 0 
2 3 0 
2 6 0 
0 6 0 
0 3 4 
2 3 4 
2 6 4 
0 6 4 
0 3 2 
0 6 2 
0 6 4 
0 3 4 
0 6 2 
2 6 2 
2 6 4 
0 6 4 
2 3 2 
2 6 2 
2 6 4 
2 3 4 
2 3 2 
4 3 2 
4 6 2 
2 6 2 
2 6 0 
4 6 0 
4 6 2 
2 6 2 
4 3 0 
4 6 0 
4 6 2 
4 3 2 
2 3 0 
4 3 0 
4 6 0 
2 6 0 
2 6 2 
4 6 2 
4 6 4 
2 6 4 
4 3 4 
4 3.66667 4 
4 3.66667 4 
4 6 4 
2 3 0 
2 3 2 
0 3 2 
2 3 0 
0 3 2 
0 3 0 
4 3.66667 4 
4 6 4 
2 6 4 
4 3.66667 4 
2 6 4 
2 3 4 
4 3.66667 4 
2 3 4 
4 3 4 
4 3.66667 4 
4 3 4 
4 3 2 
4 3.66667 4 
4 3 2 
4 6 2 
4 3.66667 4 
4 6 2 
4 6 4 
2 3 0 
0 3 2 
4 3.66667 4 
2 6 4 
4 3.66667 4 
2 3 4 
4 3.66667 4 
4 3 2 
4 3.66667 4 
4 6 2 
4 3 2 
4 3.66667 4 
3.0006 3.43347 3.0006 
4 3.66667 4 
2 3 4 
3.0006 3.43347 3.0006 
2 3 2 
4 3 2 
3.0006 3.43347 3.0006 
2 3 4 
2 3 2 
3.0006 3.43347 3.0006 
4 3 2 
3.0006 3.43347 3.0006 
3.0006 3.43347 3.0006 
4 3.66667 4 
3.0006 3.43347 3.0006 
2 3 4 
2 3 2 
3.0006 3.43347 3.0006 
-1 2.5 -1 
5 3.2 -1 
5 3.9 5 
-1 3.2 5 

CELLS 118 482
8 0 1 2 3 4 5 6 7
8 8 9 10 11 12 13 14 15
8 16 17 18 19 20 21 22 23
8 24 25 26 27 28 29 30 31
8 32 33 34 35 36 37 38 39
8 40 41 42 43 44 45 46 47
8 48 49 50 51 52 53 54 55
8 56 57 58 59 60 61 62 63
2 64 65
2 66 67
2 68 69
2 70 71
2 72 73
2 74 75
2 76 77
2 78 79
2 80 81
2 82 83
2 84 85
2 86 87
2 88 89
2 90 91
2 92 93
2 94 95
2 96 97
2 98 99
2 100 101
2 102 103
2 104 105
2 106 107
2 108 109
2 110 111
2 112 113
2 114 115
2 116 117
2 118 119
2 120 121
2 122 123
2 124 125
2 126 127
2 128 129
2 130 131
2 132 133
2 134 135
2 136 137
2 138 139
2 140 141
2 142 143
2 144 145
2 146 147
2 148 149
2 150 151
2 152 153
2 154 155
2 156 157
2 158 159
2 160 161
2 162 163
2 164 165
2 166 167
2 168 169
4 170 171 172 173
4 174 175 176 177
4 178 179 180 181
4 182 183 184 185
4 186 187 188 189
4 190 191 192 193
4 194 195 196 197
4 198 199 200 201
4 202 203 204 205
4 206 207 208 209
4 210 211 212 213
4 214 215 216 217
4 218 219 220 221
4 222 223 224 225
4 226 227 228 229
4 230 231 232 233
4 234 235 236 237
4 238 239 240 241
4 242 243 244 245
4 246 247 248 249
4 250 251 252 253
4 254 255 256 257
4 258 259 260 261
4 262 263 264 265
4 266 267 268 269
4 270 271 272 273
4 274 275 276 277
4 278 279 280 281
4 282 283 284 285
4 286 287 288 289
4 290 291 292 293
4 294 295 296 297
4 298 299 300 301
2 302 303
2 304 305
3 306 307 308
3 309 310 311
3 312 313 314
3 315 316 317
3 318 319 320
3 321 322 323
3 324 325 326
3 327 328 329
2 330 331
2 332 333
2 334 335
2 336 337
2 338 339
3 340 341 342
3 343 344 345
3 346 347 348
3 349 350 351
2 352 353
2 354 355
2 356 357
2 358 359
4 360 361 362 363

CELL_TYPES 118
12
12
12
12
12
12
12
12
3
3
3
3
3
3
3
3
3
3
3
3
3
3
3
3
3
3
3
3
3
3
3
3
3
3
3
3
3
3
3
3
3
3
3
3
3
3
3
3
3
3
3
3
3
3
3
3
3
3
3
3
3
9
9
9
9
9
9
9
9
9
9
9
9
9
9
9
9
9
9
9
9
9
9
9
9
9
9
9
9
9
9
9
9
9
3
3
5
5
5
5
5
5
5
5
3
3
3
3
3
5
5
5
5
3
3
3
3
9

CELL_DATA 118
FIELD FieldData 3
material 1 118 int
1
1
1
1
1
1
1
1
3
2
1
1
2
2
1
1
3
2
3
1
1
2
1
1
2
2
1
1
2
1
1
2
1
2
1
1
1
1
1
1
1
1
1
3
1
1
1
1
1
3
1
3
1
1
1
3
1
1
3
1
1
1
1
1
1
1
1
1
2
1
1
1
2
1
1
1
1
1
1
1
1
1
1
1
1
1
1
1
1
1
1
1
1
1
3
3
2
2
3
4
5
3
4
5
2
3
2
2
3
2
2
2
2
2
2
2
2
100
elIndex 1 118 int
0
1
2
3
4
5
6
7
8
9
10
11
12
13
14
15
16
17
18
19
20
21
22
23
24
25
26
27
28
29
30
31
32
33
34
35
36
37
38
39
40
41
42
43
44
45
46
47
48
49
50
51
52
53
54
55
56
57
58
59
61
62
63
65
66
67
68
69
70
71
72
73
74
75
76
77
78
79
80
81
82
83
84
85
86
87
88
89
90
91
92
93
94
96
98
99
100
101
102
103
104
105
106
107
108
109
110
111
112
117
118
119
120
133
134
135
136
148
Dimension 1 118 int
3
3
3
3
3
3
3
3
1
1
1
1
1
1
1
1
1
1
1
1
1
1
1
1
1
1
1
1
1
1
1
1
1
1
1
1
1
1
1
1
1
1
1
1
1
1
1
1
1
1
1
1
1
1
1
1
1
1
1
1
1
2
2
2
2
2
2
2
2
2
2
2
2
2
2
2
2
2
2
2
2
2
2
2
2
2
2
2
2
2
2
2
2
2
1
1
2
2
2
2
2
2
2
2
1
1
1
1
1
2
2
2
2
1
1
1
1
2
