# vtk DataFile Version 3.0
TPZGeoMesh VTK Visualization
ASCII

DATASET UNSTRUCTURED_GRID
POINTS 165 float
0 0 0 
2 0 0 
2 2 0 
0 2 0 
4 0 0 
6 0 0 
6 2 0 
4 2 0 
0 2 0 
2 2 0 
2 4 0 
0 4 0 
4 2 0 
6 2 0 
6 4 0 
4 4 0 
0 4 0 
2 4 0 
2 6 0 
0 6 0 
4 4 0 
6 4 0 
6 6 0 
4 6 0 
0 6 0 
2 6 0 
2 8 0 
0 8 0 
4 6 0 
6 6 0 
6 8 0 
4 8 0 
0 2 0 
0 0 0 
0 2 0 
2 2 0 
2 2 0 
2 0 0 
0 0 0 
2 0 0 
4 2 0 
4 0 0 
2 0 0 
4 0 0 
4 2 0 
6 2 0 
6 0 0 
6 2 0 
4 0 0 
6 0 0 
0 4 0 
0 2 0 
0 4 0 
2 4 0 
2 4 0 
2 2 0 
4 4 0 
4 2 0 
4 4 0 
6 4 0 
6 2 0 
6 4 0 
0 6 0 
0 4 0 
0 6 0 
2 6 0 
2 6 0 
2 4 0 
4 6 0 
4 4 0 
4 6 0 
6 6 0 
6 4 0 
6 6 0 
0 8 0 
0 6 0 
2 8 0 
0 8 0 
2 8 0 
2 6 0 
4 8 0 
4 6 0 
6 8 0 
4 8 0 
6 6 0 
6 8 0 
2 2 0 
3.69444 2 0 
3.69444 2 0 
4 2 0 
2 4 0 
3.47 4 0 
3.47 4 0 
4 4 0 
2 6 0 
3.24556 6 0 
3.24556 6 0 
4 6 0 
4 8 0 
3.02112 8 0 
3.02112 8 0 
2 8 0 
3.69444 2 0 
2 2 0 
2 0 0 
3.69444 2 0 
2 0 0 
4 0 0 
3.69444 2 0 
4 0 0 
4 2 0 
3.47 4 0 
3.69444 2 0 
4 2 0 
4 4 0 
3.69444 2 0 
3.47 4 0 
2 4 0 
2 2 0 
3.24556 6 0 
3.47 4 0 
4 4 0 
4 6 0 
3.47 4 0 
3.24556 6 0 
2 6 0 
2 4 0 
3.02112 8 0 
3.24556 6 0 
4 6 0 
4 8 0 
3.24556 6 0 
3.02112 8 0 
2 8 0 
2 6 0 
3.69444 2 0 
2 0 0 
3.69444 2 0 
4 0 0 
3.69444 2 0 
3.47 4 0 
3.47 4 0 
3.24556 6 0 
3.24556 6 0 
3.02112 8 0 
3.02 8.01 -1 
3.92 -0.01 -1 
3.92 -0.01 1 
3.02 8.01 1 
2.3 0.3 0.002 
3.7 0.3 0.002 
3.7 1.7 0.002 
2.3 1.7 0.002 
2.3 2.3 0.002 
3.7 2.3 0.002 
3.7 3.7 0.002 
2.3 3.7 0.002 
2.3 4.3 0.002 
3.7 4.3 0.002 
3.7 5.7 0.002 
2.3 5.7 0.002 
2.3 6.3 0.002 
3.7 6.3 0.002 
3.7 7.7 0.002 
2.3 7.7 0.002 

CELLS 62 227
4 0 1 2 3
4 4 5 6 7
4 8 9 10 11
4 12 13 14 15
4 16 17 18 19
4 20 21 22 23
4 24 25 26 27
4 28 29 30 31
2 32 33
2 34 35
2 36 37
2 38 39
2 40 41
2 42 43
2 44 45
2 46 47
2 48 49
2 50 51
2 52 53
2 54 55
2 56 57
2 58 59
2 60 61
2 62 63
2 64 65
2 66 67
2 68 69
2 70 71
2 72 73
2 74 75
2 76 77
2 78 79
2 80 81
2 82 83
2 84 85
2 86 87
2 88 89
2 90 91
2 92 93
2 94 95
2 96 97
2 98 99
2 100 101
3 102 103 104
3 105 106 107
3 108 109 110
4 111 112 113 114
4 115 116 117 118
4 119 120 121 122
4 123 124 125 126
4 127 128 129 130
4 131 132 133 134
2 135 136
2 137 138
2 139 140
2 141 142
2 143 144
4 145 146 147 148
4 149 150 151 152
4 153 154 155 156
4 157 158 159 160
4 161 162 163 164

CELL_TYPES 62
9
9
9
9
9
9
9
9
3
3
3
3
3
3
3
3
3
3
3
3
3
3
3
3
3
3
3
3
3
3
3
3
3
3
3
3
3
3
3
3
3
3
3
5
5
5
9
9
9
9
9
9
3
3
3
3
3
9
9
9
9
9

CELL_DATA 62
FIELD FieldData 3
material 1 62 int
1
1
1
1
1
1
1
1
1
1
1
1
1
3
1
1
1
1
1
1
1
1
1
1
1
1
1
1
1
1
1
1
1
1
1
3
3
3
3
3
3
3
3
3
4
5
3
4
3
4
3
4
3
2
2
2
2
100
-1
-1
-1
-1
elIndex 1 62 int
0
2
3
5
6
8
9
11
12
13
14
15
17
18
19
20
21
22
23
24
26
27
28
29
30
31
33
34
35
36
37
38
40
41
42
43
44
45
46
47
48
49
50
51
52
53
54
55
56
57
58
59
60
61
62
63
64
65
66
67
68
69
Dimension 1 62 int
2
2
2
2
2
2
2
2
1
1
1
1
1
1
1
1
1
1
1
1
1
1
1
1
1
1
1
1
1
1
1
1
1
1
1
1
1
1
1
1
1
1
1
2
2
2
2
2
2
2
2
2
1
1
1
1
1
2
2
2
2
2
