# vtk DataFile Version 3.0
TPZGeoMesh VTK Visualization
ASCII

DATASET UNSTRUCTURED_GRID
POINTS 149 float
0 0 0 
2 0 0 
2 2 0 
0 2 0 
2 0 0 
4 0 0 
4 2 0 
2 2 0 
4 0 0 
6 0 0 
6 2 0 
4 2 0 
0 2 0 
2 2 0 
2 4 0 
0 4 0 
2 2 0 
4 2 0 
4 4 0 
2 4 0 
4 2 0 
6 2 0 
6 4 0 
4 4 0 
0 4 0 
2 4 0 
2 6 0 
0 6 0 
4 4 0 
6 4 0 
6 6 0 
4 6 0 
0 6 0 
2 6 0 
2 8 0 
0 8 0 
4 6 0 
6 6 0 
6 8 0 
4 8 0 
0 2 0 
0 0 0 
0 2 0 
2 2 0 
2 2 0 
2 0 0 
0 0 0 
2 0 0 
2 2 0 
4 2 0 
4 2 0 
4 0 0 
2 0 0 
4 0 0 
4 2 0 
6 2 0 
6 0 0 
6 2 0 
4 0 0 
6 0 0 
0 4 0 
0 2 0 
0 4 0 
2 4 0 
2 4 0 
2 2 0 
2 4 0 
4 4 0 
4 4 0 
4 2 0 
4 4 0 
6 4 0 
6 2 0 
6 4 0 
0 6 0 
0 4 0 
0 6 0 
2 6 0 
2 6 0 
2 4 0 
4 6 0 
4 4 0 
4 6 0 
6 6 0 
6 4 0 
6 6 0 
0 8 0 
0 6 0 
2 8 0 
0 8 0 
2 8 0 
2 6 0 
4 8 0 
4 6 0 
6 8 0 
4 8 0 
6 6 0 
6 8 0 
2 6 0 
3.24556 6 0 
3.24556 6 0 
4 6 0 
4 8 0 
3.02112 8 0 
3.02112 8 0 
2 8 0 
3.24556 6 0 
2 6 0 
2 4 0 
3.24556 6 0 
2 4 0 
4 4 0 
3.24556 6 0 
4 4 0 
4 6 0 
3.02112 8 0 
3.24556 6 0 
4 6 0 
4 8 0 
3.24556 6 0 
3.02112 8 0 
2 8 0 
2 6 0 
3.24556 6 0 
2 4 0 
3.24556 6 0 
4 4 0 
3.24556 6 0 
3.02112 8 0 
3.02 8.01 -1 
3.92 -0.01 -1 
3.92 -0.01 1 
3.02 8.01 1 
2.7 0.7 0.002 
3.3 0.7 0.002 
3.3 1.3 0.002 
2.7 1.3 0.002 
2.7 2.7 0.002 
3.3 2.7 0.002 
3.3 3.3 0.002 
2.7 3.3 0.002 
2.7 4.7 0.002 
3.3 4.7 0.002 
3.3 5.3 0.002 
2.7 5.3 0.002 
2.7 6.7 0.002 
3.3 6.7 0.002 
3.3 7.3 0.002 
2.7 7.3 0.002 

CELLS 56 205
4 0 1 2 3
4 4 5 6 7
4 8 9 10 11
4 12 13 14 15
4 16 17 18 19
4 20 21 22 23
4 24 25 26 27
4 28 29 30 31
4 32 33 34 35
4 36 37 38 39
2 40 41
2 42 43
2 44 45
2 46 47
2 48 49
2 50 51
2 52 53
2 54 55
2 56 57
2 58 59
2 60 61
2 62 63
2 64 65
2 66 67
2 68 69
2 70 71
2 72 73
2 74 75
2 76 77
2 78 79
2 80 81
2 82 83
2 84 85
2 86 87
2 88 89
2 90 91
2 92 93
2 94 95
2 96 97
2 98 99
2 100 101
2 102 103
2 104 105
3 106 107 108
3 109 110 111
3 112 113 114
4 115 116 117 118
4 119 120 121 122
2 123 124
2 125 126
2 127 128
4 129 130 131 132
4 133 134 135 136
4 137 138 139 140
4 141 142 143 144
4 145 146 147 148

CELL_TYPES 56
9
9
9
9
9
9
9
9
9
9
3
3
3
3
3
3
3
3
3
3
3
3
3
3
3
3
3
3
3
3
3
3
3
3
3
3
3
3
3
3
3
3
3
5
5
5
9
9
3
3
3
9
9
9
9
9

CELL_DATA 56
FIELD FieldData 3
material 1 56 int
1
1
1
1
1
1
1
1
1
1
1
1
1
1
3
2
3
1
1
1
1
1
1
3
2
1
1
1
1
1
1
1
1
1
1
1
1
1
1
3
3
3
3
3
4
5
3
4
3
2
2
100
-1
-1
-1
-1
elIndex 1 56 int
0
1
2
3
4
5
6
8
9
11
12
13
14
15
16
17
18
19
20
21
22
23
24
25
26
27
28
29
30
31
33
34
35
36
37
38
40
41
42
43
44
45
46
47
48
49
50
51
52
53
54
55
56
57
58
59
Dimension 1 56 int
2
2
2
2
2
2
2
2
2
2
1
1
1
1
1
1
1
1
1
1
1
1
1
1
1
1
1
1
1
1
1
1
1
1
1
1
1
1
1
1
1
1
1
2
2
2
2
2
1
1
1
2
2
2
2
2
