# vtk DataFile Version 3.0
TPZGeoMesh VTK Visualization
ASCII

DATASET UNSTRUCTURED_GRID
POINTS 158 float
0 0 0 
1 0 0 
1 1 0 
0 1 0 
1 0 0 
2 0 0 
2 1 0 
1 1 0 
2 0 0 
3 0 0 
3 1 0 
2 1 0 
0 1 0 
1 1 0 
1 2 0 
0 2 0 
0 2 0 
1 2 0 
1 3 0 
0 3 0 
1 2 0 
2 2 0 
2 3 0 
1 3 0 
2 2 0 
3 2 0 
3 3 0 
2 3 0 
0 1 0 
0 0 0 
0 1 0 
1 1 0 
1 1 0 
1 0 0 
0 0 0 
1 0 0 
1 1 0 
2 1 0 
2 1 0 
2 0 0 
1 0 0 
2 0 0 
2 1 0 
3 1 0 
3 0 0 
3 1 0 
2 0 0 
3 0 0 
0 2 0 
0 1 0 
0 2 0 
1 2 0 
1 2 0 
1 1 0 
1 2 0 
2 2 0 
2 2 0 
3 2 0 
0 3 0 
0 2 0 
1 3 0 
0 3 0 
1 3 0 
1 2 0 
2 3 0 
1 3 0 
2 3 0 
2 2 0 
3 3 0 
2 3 0 
3 2 0 
3 3 0 
2 2 0 
2 1.43 0 
2 1.43 0 
2 1 0 
3 1 0 
3 1.49 0 
3 1.49 0 
3 2 0 
1.5 1.4 0 
2 1.43 0 
1.5 1.4 0 
2 1.43 0 
2 2 0 
1.5 1.4 0 
2 2 0 
1 2 0 
1.5 1.4 0 
1 2 0 
1 1 0 
1.5 1.4 0 
1 1 0 
2 1 0 
1.5 1.4 0 
2 1 0 
2 1.43 0 
3 1.49 0 
2 1.43 0 
2 1.43 0 
3 1.49 0 
3 2 0 
2 2 0 
3 1.49 0 
2 1.43 0 
2 1 0 
3 1 0 
1.5 1.4 0 
2 2 0 
1.5 1.4 0 
1 2 0 
1.5 1.4 0 
1 1 0 
1.5 1.4 0 
2 1 0 
1.5 1.4 -1 
4 1.55 -1 
4 1.55 -1 
4 1.55 1 
4 1.55 1 
1.5 1.4 1 
1.5 1.4 1 
1.5 1.4 0 
1.5 1.4 0 
1.5 1.4 -1 
4 1.55 -1 
3 1.49 0 
1.5 1.4 -1 
4 1.55 1 
1.5 1.4 1 
3 1.49 0 
3 1.49 0 
2 1.43 0 
1.5 1.4 -1 
2 1.43 0 
1.5 1.4 0 
1.5 1.4 -1 
4 1.55 -1 
4 1.55 1 
3 1.49 0 
3 1.49 0 
1.5 1.4 1 
2 1.43 0 
2 1.43 0 
1.5 1.4 1 
1.5 1.4 0 
1.5 1.4 -1 
3 1.49 0 
3 1.49 0 
4 1.55 -1 
4 1.55 1 
3 1.49 0 
3 1.49 0 
1.5 1.4 1 
1.5 1.4 -1 
2 1.43 0 
2 1.43 0 
1.5 1.4 1 

CELLS 64 222
4 0 1 2 3
4 4 5 6 7
4 8 9 10 11
4 12 13 14 15
4 16 17 18 19
4 20 21 22 23
4 24 25 26 27
2 28 29
2 30 31
2 32 33
2 34 35
2 36 37
2 38 39
2 40 41
2 42 43
2 44 45
2 46 47
2 48 49
2 50 51
2 52 53
2 54 55
2 56 57
2 58 59
2 60 61
2 62 63
2 64 65
2 66 67
2 68 69
2 70 71
2 72 73
2 74 75
2 76 77
2 78 79
2 80 81
3 82 83 84
3 85 86 87
3 88 89 90
3 91 92 93
3 94 95 96
2 97 98
4 99 100 101 102
4 103 104 105 106
2 107 108
2 109 110
2 111 112
2 113 114
2 115 116
2 117 118
2 119 120
2 121 122
2 123 124
3 125 126 127
3 128 129 130
3 131 132 133
3 134 135 136
3 137 138 139
3 140 141 142
3 143 144 145
2 146 147
2 148 149
2 150 151
2 152 153
2 154 155
2 156 157

CELL_TYPES 64
9
9
9
9
9
9
9
3
3
3
3
3
3
3
3
3
3
3
3
3
3
3
3
3
3
3
3
3
3
3
3
3
3
3
5
5
5
5
5
3
9
9
3
3
3
3
3
3
3
3
3
5
5
5
5
5
5
5
3
3
3
3
3
3

CELL_DATA 64
FIELD FieldData 2
material 1 64 int
1
1
1
1
1
1
1
4
4
4
4
4
4
4
4
4
4
4
4
4
4
4
4
4
4
4
4
4
4
18
18
18
18
46
18
18
18
18
18
46
18
18
21
21
21
21
46
46
46
46
46
47
47
47
47
47
47
47
46
46
46
46
46
46
elIndex 1 64 int
0
1
2
3
6
7
8
9
10
11
12
13
14
15
16
17
18
19
20
21
22
24
26
27
28
29
30
31
32
33
34
35
36
37
38
39
40
41
42
43
44
45
46
47
48
49
50
51
52
53
54
55
56
57
58
59
60
61
62
63
64
65
66
67
